/*--------------------------------*- C++ -*----------------------------------*\
| =========                 |                                                 |
| \\      /  F ield         | OpenFOAM: The Open Source CFD Toolbox           |
|  \\    /   O peration     | Version:  v2012                                 |
|   \\  /    A nd           | Website:  www.openfoam.com                      |
|    \\/     M anipulation  |                                                 |
\*---------------------------------------------------------------------------*/
FoamFile
{
    version     2.0;
    format      ascii;
    class       volVectorField;
    location    "0";
    object      C;
}
// * * * * * * * * * * * * * * * * * * * * * * * * * * * * * * * * * * * * * //

dimensions      [0 1 0 0 0 0 0];


internalField   nonuniform List<vector> 
15800
(
(0.00346481 0.000402336 0)
(0.0104106 0.000402336 0)
(0.0173888 0.000402336 1.02799e-18)
(0.0243995 0.000402336 0)
(0.0314429 0.000402336 0)
(0.0385191 0.000402336 0)
(0.0456283 0.000402336 4.81868e-20)
(0.0527707 0.000402336 0)
(0.0599464 0.000402336 0)
(0.0671555 0.000402336 0)
(0.0743983 0.000402336 0)
(0.0816748 0.000402336 0)
(0.0889853 0.000402336 0)
(0.0963298 0.000402336 0)
(0.103709 0.000402336 0)
(0.111122 0.000402336 0)
(0.11857 0.000402336 -1.88424e-18)
(0.126052 0.000402336 -9.61953e-19)
(0.133569 0.000402336 0)
(0.141122 0.000402336 0)
(0.14871 0.000402336 0)
(0.156333 0.000402336 -1.84203e-18)
(0.163991 0.000402336 0)
(0.171685 0.000402336 0)
(0.179416 0.000402336 0)
(0.187182 0.000402336 0)
(0.194984 0.000402336 -2.67708e-18)
(0.202823 0.000402336 0)
(0.210698 0.000402336 0)
(0.21861 0.000402336 0)
(0.226559 0.000402336 0)
(0.234545 0.000402336 0)
(0.242569 0.000402336 9.00364e-19)
(0.250629 0.000402336 0)
(0.258728 0.000402336 1.73676e-18)
(0.266864 0.000402336 0)
(0.275038 0.000402336 0)
(0.28325 0.000402336 0)
(0.2915 0.000402336 0)
(0.299789 0.000402336 0)
(0.308116 0.000402336 0)
(0.316483 0.000402336 0)
(0.324888 0.000402336 0)
(0.333333 0.000402336 0)
(0.341817 0.000402336 0)
(0.35034 0.000402336 0)
(0.358903 0.000402336 0)
(0.367506 0.000402336 0)
(0.37615 0.000402336 0)
(0.384833 0.000402336 0)
(0.393557 0.000402336 -2.44755e-18)
(0.402322 0.000402336 -3.21673e-18)
(0.411127 0.000402336 0)
(0.419974 0.000402336 0)
(0.428862 0.000402336 0)
(0.437791 0.000402336 0)
(0.446762 0.000402336 0)
(0.455775 0.000402336 0)
(0.46483 0.000402336 0)
(0.473927 0.000402336 -4.81868e-20)
(0.483066 0.000402336 0)
(0.492249 0.000402336 0)
(0.501473 0.000402336 0)
(0.510741 0.000402336 -4.81868e-20)
(0.520052 0.000402336 -3.76792e-18)
(0.529407 0.000402336 0)
(0.538805 0.000402336 -7.75696e-19)
(0.548247 0.000402336 0)
(0.557733 0.000402336 0)
(0.567263 0.000402336 0)
(0.576838 0.000402336 8.10471e-19)
(0.586457 0.000402336 0)
(0.596122 0.000402336 2.21883e-18)
(0.605831 0.000402336 0)
(0.615585 0.000402336 0)
(0.625385 0.000402336 -2.18941e-18)
(0.635231 0.000402336 6.46254e-19)
(0.645123 0.000402336 0)
(0.65506 0.000402336 0)
(0.665044 0.000402336 0)
(0.675075 0.000402336 1.41146e-18)
(0.685152 0.000402336 -4.81868e-20)
(0.695277 0.000402336 0)
(0.705448 0.000402336 0)
(0.715667 0.000402336 0)
(0.725934 0.000402336 0)
(0.736249 0.000402336 0)
(0.746611 0.000402336 0)
(0.757022 0.000402336 0)
(0.767482 0.000402336 0)
(0.77799 0.000402336 0)
(0.788547 0.000402336 0)
(0.799154 0.000402336 0)
(0.80981 0.000402336 1.33146e-18)
(0.820515 0.000402336 0)
(0.831271 0.000402336 0)
(0.842076 0.000402336 0)
(0.852933 0.000402336 0)
(0.863839 0.000402336 0)
(0.874797 0.000402336 0)
(0.885805 0.000402336 0)
(0.896865 0.000402336 0)
(0.907977 0.000402336 0)
(0.91914 0.000402336 0)
(0.930356 0.000402336 0)
(0.941624 0.000402336 0)
(0.952944 0.000402336 -1.25615e-18)
(0.964317 0.000402336 0)
(0.975743 0.000402336 0)
(0.987222 0.000402336 -4.81868e-20)
(0.998755 0.000402336 0)
(1.01034 0.000402336 2.45676e-18)
(1.02198 0.000402336 0)
(1.03368 0.000402336 0)
(1.04543 0.000402336 0)
(1.05723 0.000402336 0)
(1.06909 0.000402336 1.20125e-18)
(1.08101 0.000402336 0)
(1.09298 0.000402336 0)
(1.105 0.000402336 0)
(1.11708 0.000402336 0)
(1.12922 0.000402336 0)
(1.14142 0.000402336 0)
(1.15367 0.000402336 0)
(1.16598 0.000402336 0)
(1.17834 0.000402336 -2.25975e-18)
(1.19077 0.000402336 0)
(1.20325 0.000402336 0)
(1.21579 0.000402336 0)
(1.22839 0.000402336 -2.26716e-18)
(1.24105 0.000402336 4.81868e-20)
(1.25376 0.000402336 0)
(1.26654 0.000402336 0)
(1.27937 0.000402336 0)
(1.29227 0.000402336 0)
(1.30522 0.000402336 0)
(1.31824 0.000402336 -4.81868e-20)
(1.33132 0.000402336 0)
(1.34445 0.000402336 0)
(1.35765 0.000402336 0)
(1.37091 0.000402336 1.07944e-18)
(1.38423 0.000402336 0)
(1.39762 0.000402336 2.13977e-18)
(1.41106 0.000402336 0)
(1.42457 0.000402336 0)
(1.43815 0.000402336 0)
(1.45178 0.000402336 4.81868e-20)
(1.46548 0.000402336 0)
(1.47924 0.000402336 0)
(1.49307 0.000402336 0)
(0.00346481 0.00124284 0)
(0.0104106 0.00124284 0)
(0.0173888 0.00124284 0)
(0.0243995 0.00124284 -9.63735e-20)
(0.0314429 0.00124284 9.87716e-19)
(0.0385191 0.00124284 0)
(0.0456283 0.00124284 0)
(0.0527707 0.00124284 9.63735e-20)
(0.0599464 0.00124284 0)
(0.0671555 0.00124284 0)
(0.0743983 0.00124284 0)
(0.0816748 0.00124284 0)
(0.0889853 0.00124284 -9.55154e-19)
(0.0963298 0.00124284 0)
(0.103709 0.00124284 0)
(0.111122 0.00124284 0)
(0.11857 0.00124284 0)
(0.126052 0.00124284 -9.35409e-19)
(0.133569 0.00124284 0)
(0.141122 0.00124284 0)
(0.14871 0.00124284 0)
(0.156333 0.00124284 0)
(0.163991 0.00124284 -9.63735e-20)
(0.171685 0.00124284 0)
(0.179416 0.00124284 0)
(0.187182 0.00124284 0)
(0.194984 0.00124284 -9.63735e-20)
(0.202823 0.00124284 0)
(0.210698 0.00124284 -9.63735e-20)
(0.21861 0.00124284 0)
(0.226559 0.00124284 3.35194e-18)
(0.234545 0.00124284 0)
(0.242569 0.00124284 -9.63735e-20)
(0.250629 0.00124284 0)
(0.258728 0.00124284 0)
(0.266864 0.00124284 0)
(0.275038 0.00124284 0)
(0.28325 0.00124284 0)
(0.2915 0.00124284 0)
(0.299789 0.00124284 -9.63735e-20)
(0.308116 0.00124284 -3.20834e-18)
(0.316483 0.00124284 0)
(0.324888 0.00124284 0)
(0.333333 0.00124284 0)
(0.341817 0.00124284 9.63735e-20)
(0.35034 0.00124284 1.5695e-18)
(0.358903 0.00124284 0)
(0.367506 0.00124284 0)
(0.37615 0.00124284 0)
(0.384833 0.00124284 0)
(0.393557 0.00124284 0)
(0.402322 0.00124284 0)
(0.411127 0.00124284 0)
(0.419974 0.00124284 0)
(0.428862 0.00124284 -9.63735e-20)
(0.437791 0.00124284 0)
(0.446762 0.00124284 0)
(0.455775 0.00124284 -2.08972e-18)
(0.46483 0.00124284 4.25642e-18)
(0.473927 0.00124284 1.47662e-18)
(0.483066 0.00124284 0)
(0.492249 0.00124284 0)
(0.501473 0.00124284 9.63735e-20)
(0.510741 0.00124284 0)
(0.520052 0.00124284 0)
(0.529407 0.00124284 0)
(0.538805 0.00124284 0)
(0.548247 0.00124284 0)
(0.557733 0.00124284 -1.42002e-18)
(0.567263 0.00124284 0)
(0.576838 0.00124284 0)
(0.586457 0.00124284 0)
(0.596122 0.00124284 -2.79124e-18)
(0.605831 0.00124284 0)
(0.615585 0.00124284 0)
(0.625385 0.00124284 2.8516e-18)
(0.635231 0.00124284 0)
(0.645123 0.00124284 9.63735e-20)
(0.65506 0.00124284 0)
(0.665044 0.00124284 0)
(0.675075 0.00124284 0)
(0.685152 0.00124284 0)
(0.695277 0.00124284 0)
(0.705448 0.00124284 0)
(0.715667 0.00124284 -2.65016e-18)
(0.725934 0.00124284 0)
(0.736249 0.00124284 -1.3137e-18)
(0.746611 0.00124284 0)
(0.757022 0.00124284 0)
(0.767482 0.00124284 0)
(0.77799 0.00124284 0)
(0.788547 0.00124284 -9.63735e-20)
(0.799154 0.00124284 0)
(0.80981 0.00124284 -1.2747e-18)
(0.820515 0.00124284 0)
(0.831271 0.00124284 -1.26379e-18)
(0.842076 0.00124284 0)
(0.852933 0.00124284 2.40957e-18)
(0.863839 0.00124284 0)
(0.874797 0.00124284 0)
(0.885805 0.00124284 0)
(0.896865 0.00124284 0)
(0.907977 0.00124284 0)
(0.91914 0.00124284 0)
(0.930356 0.00124284 0)
(0.941624 0.00124284 0)
(0.952944 0.00124284 0)
(0.964317 0.00124284 0)
(0.975743 0.00124284 0)
(0.987222 0.00124284 -3.47416e-18)
(0.998755 0.00124284 0)
(1.01034 0.00124284 0)
(1.02198 0.00124284 0)
(1.03368 0.00124284 0)
(1.04543 0.00124284 0)
(1.05723 0.00124284 0)
(1.06909 0.00124284 9.63735e-20)
(1.08101 0.00124284 0)
(1.09298 0.00124284 0)
(1.105 0.00124284 0)
(1.11708 0.00124284 0)
(1.12922 0.00124284 0)
(1.14142 0.00124284 9.63735e-20)
(1.15367 0.00124284 0)
(1.16598 0.00124284 0)
(1.17834 0.00124284 1.11172e-18)
(1.19077 0.00124284 0)
(1.20325 0.00124284 0)
(1.21579 0.00124284 0)
(1.22839 0.00124284 -9.63735e-20)
(1.24105 0.00124284 0)
(1.25376 0.00124284 1.08377e-18)
(1.26654 0.00124284 0)
(1.27937 0.00124284 -2.05288e-18)
(1.29227 0.00124284 0)
(1.30522 0.00124284 0)
(1.31824 0.00124284 0)
(1.33132 0.00124284 0)
(1.34445 0.00124284 0)
(1.35765 0.00124284 0)
(1.37091 0.00124284 1.04328e-18)
(1.38423 0.00124284 1.03889e-18)
(1.39762 0.00124284 0)
(1.41106 0.00124284 0)
(1.42457 0.00124284 0)
(1.43815 0.00124284 0)
(1.45178 0.00124284 0)
(1.46548 0.00124284 9.63735e-20)
(1.47924 0.00124284 0)
(1.49307 0.00124284 0)
(0.00346481 0.00215821 0)
(0.0104106 0.00215821 0)
(0.0173888 0.00215821 -1.74857e-18)
(0.0243995 0.00215821 -3.48179e-18)
(0.0314429 0.00215821 0)
(0.0385191 0.00215821 0)
(0.0456283 0.00215821 0)
(0.0527707 0.00215821 0)
(0.0599464 0.00215821 0)
(0.0671555 0.00215821 3.39126e-18)
(0.0743983 0.00215821 9.63735e-20)
(0.0816748 0.00215821 1.68082e-18)
(0.0889853 0.00215821 9.63735e-20)
(0.0963298 0.00215821 0)
(0.103709 0.00215821 0)
(0.111122 0.00215821 1.65161e-18)
(0.11857 0.00215821 3.28878e-18)
(0.126052 0.00215821 -3.27441e-18)
(0.133569 0.00215821 -9.63735e-20)
(0.141122 0.00215821 2.48259e-18)
(0.14871 0.00215821 0)
(0.156333 0.00215821 8.52586e-19)
(0.163991 0.00215821 2.45086e-18)
(0.171685 0.00215821 0)
(0.179416 0.00215821 0)
(0.187182 0.00215821 0)
(0.194984 0.00215821 0)
(0.202823 0.00215821 0)
(0.210698 0.00215821 0)
(0.21861 0.00215821 3.83568e-18)
(0.226559 0.00215821 0)
(0.234545 0.00215821 -7.2184e-19)
(0.242569 0.00215821 1.43698e-18)
(0.250629 0.00215821 1.52668e-18)
(0.258728 0.00215821 0)
(0.266864 0.00215821 0)
(0.275038 0.00215821 0)
(0.28325 0.00215821 0)
(0.2915 0.00215821 0)
(0.299789 0.00215821 0)
(0.308116 0.00215821 0)
(0.316483 0.00215821 0)
(0.324888 0.00215821 -9.63735e-20)
(0.333333 0.00215821 0)
(0.341817 0.00215821 0)
(0.35034 0.00215821 0)
(0.358903 0.00215821 0)
(0.367506 0.00215821 0)
(0.37615 0.00215821 0)
(0.384833 0.00215821 0)
(0.393557 0.00215821 0)
(0.402322 0.00215821 0)
(0.411127 0.00215821 1.50206e-18)
(0.419974 0.00215821 0)
(0.428862 0.00215821 2.78712e-18)
(0.437791 0.00215821 1.38754e-18)
(0.446762 0.00215821 0)
(0.455775 0.00215821 -9.63735e-20)
(0.46483 0.00215821 0)
(0.473927 0.00215821 0)
(0.483066 0.00215821 -2.71571e-18)
(0.492249 0.00215821 0)
(0.501473 0.00215821 0)
(0.510741 0.00215821 -1.34037e-18)
(0.520052 0.00215821 0)
(0.529407 0.00215821 0)
(0.538805 0.00215821 9.63735e-20)
(0.548247 0.00215821 0)
(0.557733 0.00215821 0)
(0.567263 0.00215821 0)
(0.576838 0.00215821 0)
(0.586457 0.00215821 -1.3913e-18)
(0.596122 0.00215821 -2.48235e-18)
(0.605831 0.00215821 0)
(0.615585 0.00215821 0)
(0.625385 0.00215821 -2.54566e-18)
(0.635231 0.00215821 -1.36374e-18)
(0.645123 0.00215821 0)
(0.65506 0.00215821 -1.25653e-18)
(0.665044 0.00215821 0)
(0.675075 0.00215821 0)
(0.685152 0.00215821 2.38452e-18)
(0.695277 0.00215821 0)
(0.705448 0.00215821 0)
(0.715667 0.00215821 0)
(0.725934 0.00215821 1.21936e-18)
(0.736249 0.00215821 0)
(0.746611 0.00215821 0)
(0.757022 0.00215821 -3.515e-18)
(0.767482 0.00215821 -1.10228e-18)
(0.77799 0.00215821 0)
(0.788547 0.00215821 0)
(0.799154 0.00215821 0)
(0.80981 0.00215821 2.26029e-18)
(0.820515 0.00215821 0)
(0.831271 0.00215821 0)
(0.842076 0.00215821 -9.63735e-20)
(0.852933 0.00215821 2.22039e-18)
(0.863839 0.00215821 -9.63735e-20)
(0.874797 0.00215821 0)
(0.885805 0.00215821 -2.19096e-18)
(0.896865 0.00215821 0)
(0.907977 0.00215821 0)
(0.91914 0.00215821 -1.12915e-18)
(0.930356 0.00215821 0)
(0.941624 0.00215821 -1.11959e-18)
(0.952944 0.00215821 3.24814e-18)
(0.964317 0.00215821 0)
(0.975743 0.00215821 0)
(0.987222 0.00215821 0)
(0.998755 0.00215821 1.09606e-18)
(1.01034 0.00215821 1.09142e-18)
(1.02198 0.00215821 3.16404e-18)
(1.03368 0.00215821 0)
(1.04543 0.00215821 0)
(1.05723 0.00215821 0)
(1.06909 0.00215821 -1.06854e-18)
(1.08101 0.00215821 -1.06403e-18)
(1.09298 0.00215821 0)
(1.105 0.00215821 0)
(1.11708 0.00215821 -9.63735e-20)
(1.12922 0.00215821 0)
(1.14142 0.00215821 9.63735e-20)
(1.15367 0.00215821 9.63735e-20)
(1.16598 0.00215821 1.96968e-18)
(1.17834 0.00215821 -1.96099e-18)
(1.19077 0.00215821 -1.02435e-18)
(1.20325 0.00215821 0)
(1.21579 0.00215821 -1.01576e-18)
(1.22839 0.00215821 -1.01149e-18)
(1.24105 0.00215821 9.63735e-20)
(1.25376 0.00215821 0)
(1.26654 0.00215821 0)
(1.27937 0.00215821 -9.94622e-19)
(1.29227 0.00215821 0)
(1.30522 0.00215821 0)
(1.31824 0.00215821 -9.63735e-20)
(1.33132 0.00215821 0)
(1.34445 0.00215821 0)
(1.35765 0.00215821 0)
(1.37091 0.00215821 0)
(1.38423 0.00215821 -2.88542e-18)
(1.39762 0.00215821 3.73479e-18)
(1.41106 0.00215821 0)
(1.42457 0.00215821 0)
(1.43815 0.00215821 0)
(1.45178 0.00215821 9.63735e-20)
(1.46548 0.00215821 -1.7796e-18)
(1.47924 0.00215821 9.34079e-19)
(1.49307 0.00215821 -1.76401e-18)
(0.00346481 0.00315511 -4.81868e-20)
(0.0104106 0.00315511 8.58446e-19)
(0.0173888 0.00315511 0)
(0.0243995 0.00315511 1.6064e-18)
(0.0314429 0.00315511 0)
(0.0385191 0.00315511 8.44396e-19)
(0.0456283 0.00315511 0)
(0.0527707 0.00315511 0)
(0.0599464 0.00315511 0)
(0.0671555 0.00315511 0)
(0.0743983 0.00315511 -8.27198e-19)
(0.0816748 0.00315511 9.63735e-20)
(0.0889853 0.00315511 0)
(0.0963298 0.00315511 0)
(0.103709 0.00315511 0)
(0.111122 0.00315511 0)
(0.11857 0.00315511 2.2285e-18)
(0.126052 0.00315511 0)
(0.133569 0.00315511 0)
(0.141122 0.00315511 8.93605e-19)
(0.14871 0.00315511 0)
(0.156333 0.00315511 0)
(0.163991 0.00315511 0)
(0.171685 0.00315511 0)
(0.179416 0.00315511 9.63735e-20)
(0.187182 0.00315511 0)
(0.194984 0.00315511 0)
(0.202823 0.00315511 0)
(0.210698 0.00315511 0)
(0.21861 0.00315511 4.20675e-18)
(0.226559 0.00315511 0)
(0.234545 0.00315511 5.49519e-18)
(0.242569 0.00315511 -1.41583e-18)
(0.250629 0.00315511 2.81942e-18)
(0.258728 0.00315511 0)
(0.266864 0.00315511 0)
(0.275038 0.00315511 0)
(0.28325 0.00315511 0)
(0.2915 0.00315511 0)
(0.299789 0.00315511 0)
(0.308116 0.00315511 -1.36763e-18)
(0.316483 0.00315511 0)
(0.324888 0.00315511 0)
(0.333333 0.00315511 0)
(0.341817 0.00315511 2.68838e-18)
(0.35034 0.00315511 0)
(0.358903 0.00315511 -1.42901e-18)
(0.367506 0.00315511 0)
(0.37615 0.00315511 0)
(0.384833 0.00315511 0)
(0.393557 0.00315511 2.61969e-18)
(0.402322 0.00315511 0)
(0.411127 0.00315511 0)
(0.419974 0.00315511 9.63735e-20)
(0.428862 0.00315511 3.76605e-18)
(0.437791 0.00315511 3.74946e-18)
(0.446762 0.00315511 0)
(0.455775 0.00315511 0)
(0.46483 0.00315511 3.70017e-18)
(0.473927 0.00315511 9.63735e-20)
(0.483066 0.00315511 0)
(0.492249 0.00315511 0)
(0.501473 0.00315511 2.48792e-18)
(0.510741 0.00315511 -1.14226e-18)
(0.520052 0.00315511 0)
(0.529407 0.00315511 -1.22806e-18)
(0.538805 0.00315511 0)
(0.548247 0.00315511 0)
(0.557733 0.00315511 0)
(0.567263 0.00315511 0)
(0.576838 0.00315511 0)
(0.586457 0.00315511 0)
(0.596122 0.00315511 0)
(0.605831 0.00315511 0)
(0.615585 0.00315511 0)
(0.625385 0.00315511 0)
(0.635231 0.00315511 0)
(0.645123 0.00315511 -2.4296e-18)
(0.65506 0.00315511 1.16164e-18)
(0.665044 0.00315511 -1.1567e-18)
(0.675075 0.00315511 -1.24815e-18)
(0.685152 0.00315511 -9.63735e-20)
(0.695277 0.00315511 -1.23838e-18)
(0.705448 0.00315511 0)
(0.715667 0.00315511 0)
(0.725934 0.00315511 0)
(0.736249 0.00315511 2.14908e-18)
(0.746611 0.00315511 0)
(0.757022 0.00315511 0)
(0.767482 0.00315511 -9.63735e-20)
(0.77799 0.00315511 -1.00743e-18)
(0.788547 0.00315511 -1.09913e-18)
(0.799154 0.00315511 0)
(0.80981 0.00315511 -2.08332e-18)
(0.820515 0.00315511 0)
(0.831271 0.00315511 0)
(0.842076 0.00315511 0)
(0.852933 0.00315511 0)
(0.863839 0.00315511 0)
(0.874797 0.00315511 0)
(0.885805 0.00315511 0)
(0.896865 0.00315511 -9.63735e-20)
(0.907977 0.00315511 0)
(0.91914 0.00315511 0)
(0.930356 0.00315511 -9.43912e-19)
(0.941624 0.00315511 0)
(0.952944 0.00315511 0)
(0.964317 0.00315511 -2.98524e-18)
(0.975743 0.00315511 0)
(0.987222 0.00315511 -9.63735e-20)
(0.998755 0.00315511 0)
(1.01034 0.00315511 1.01004e-18)
(1.02198 0.00315511 0)
(1.03368 0.00315511 0)
(1.04543 0.00315511 0)
(1.05723 0.00315511 0)
(1.06909 0.00315511 0)
(1.08101 0.00315511 0)
(1.09298 0.00315511 0)
(1.105 0.00315511 -2.83362e-18)
(1.11708 0.00315511 0)
(1.12922 0.00315511 2.71279e-18)
(1.14142 0.00315511 9.63735e-20)
(1.15367 0.00315511 0)
(1.16598 0.00315511 0)
(1.17834 0.00315511 9.52434e-19)
(1.19077 0.00315511 0)
(1.20325 0.00315511 0)
(1.21579 0.00315511 0)
(1.22839 0.00315511 0)
(1.24105 0.00315511 9.63735e-20)
(1.25376 0.00315511 0)
(1.26654 0.00315511 0)
(1.27937 0.00315511 -9.2116e-19)
(1.29227 0.00315511 0)
(1.30522 0.00315511 0)
(1.31824 0.00315511 0)
(1.33132 0.00315511 0)
(1.34445 0.00315511 0)
(1.35765 0.00315511 0)
(1.37091 0.00315511 0)
(1.38423 0.00315511 8.91029e-19)
(1.39762 0.00315511 0)
(1.41106 0.00315511 0)
(1.42457 0.00315511 9.63735e-20)
(1.43815 0.00315511 8.76379e-19)
(1.45178 0.00315511 0)
(1.46548 0.00315511 -8.69156e-19)
(1.47924 0.00315511 3.26953e-18)
(1.49307 0.00315511 0)
(0.00346481 0.0042408 0)
(0.0104106 0.0042408 -1.49587e-18)
(0.0173888 0.0042408 0)
(0.0243995 0.0042408 0)
(0.0314429 0.0042408 -9.63735e-20)
(0.0385191 0.0042408 0)
(0.0456283 0.0042408 -1.46369e-18)
(0.0527707 0.0042408 0)
(0.0599464 0.0042408 0)
(0.0671555 0.0042408 0)
(0.0743983 0.0042408 0)
(0.0816748 0.0042408 -2.76814e-18)
(0.0889853 0.0042408 2.75574e-18)
(0.0963298 0.0042408 0)
(0.103709 0.0042408 0)
(0.111122 0.0042408 0)
(0.11857 0.0042408 -9.63735e-20)
(0.126052 0.0042408 0)
(0.133569 0.0042408 0)
(0.141122 0.0042408 1.38345e-18)
(0.14871 0.0042408 0)
(0.156333 0.0042408 0)
(0.163991 0.0042408 1.26924e-18)
(0.171685 0.0042408 0)
(0.179416 0.0042408 0)
(0.187182 0.0042408 0)
(0.194984 0.0042408 0)
(0.202823 0.0042408 0)
(0.210698 0.0042408 0)
(0.21861 0.0042408 0)
(0.226559 0.0042408 2.63849e-18)
(0.234545 0.0042408 1.31357e-18)
(0.242569 0.0042408 0)
(0.250629 0.0042408 2.41185e-18)
(0.258728 0.0042408 0)
(0.266864 0.0042408 0)
(0.275038 0.0042408 -1.28559e-18)
(0.28325 0.0042408 0)
(0.2915 0.0042408 0)
(0.299789 0.0042408 0)
(0.308116 0.0042408 0)
(0.316483 0.0042408 0)
(0.324888 0.0042408 0)
(0.333333 0.0042408 0)
(0.341817 0.0042408 1.24214e-18)
(0.35034 0.0042408 1.23682e-18)
(0.358903 0.0042408 0)
(0.367506 0.0042408 0)
(0.37615 0.0042408 0)
(0.384833 0.0042408 0)
(0.393557 0.0042408 0)
(0.402322 0.0042408 0)
(0.411127 0.0042408 0)
(0.419974 0.0042408 -1.19516e-18)
(0.428862 0.0042408 2.28375e-18)
(0.437791 0.0042408 9.63735e-20)
(0.446762 0.0042408 0)
(0.455775 0.0042408 0)
(0.46483 0.0042408 0)
(0.473927 0.0042408 -1.16492e-18)
(0.483066 0.0042408 0)
(0.492249 0.0042408 0)
(0.501473 0.0042408 0)
(0.510741 0.0042408 0)
(0.520052 0.0042408 0)
(0.529407 0.0042408 0)
(0.538805 0.0042408 -1.22705e-18)
(0.548247 0.0042408 0)
(0.557733 0.0042408 0)
(0.567263 0.0042408 0)
(0.576838 0.0042408 0)
(0.586457 0.0042408 0)
(0.596122 0.0042408 0)
(0.605831 0.0042408 0)
(0.615585 0.0042408 0)
(0.625385 0.0042408 -9.63735e-20)
(0.635231 0.0042408 0)
(0.645123 0.0042408 0)
(0.65506 0.0042408 0)
(0.665044 0.0042408 0)
(0.675075 0.0042408 0)
(0.685152 0.0042408 0)
(0.695277 0.0042408 0)
(0.705448 0.0042408 0)
(0.715667 0.0042408 0)
(0.725934 0.0042408 -1.98999e-18)
(0.736249 0.0042408 0)
(0.746611 0.0042408 0)
(0.757022 0.0042408 0)
(0.767482 0.0042408 0)
(0.77799 0.0042408 0)
(0.788547 0.0042408 -2.03424e-18)
(0.799154 0.0042408 0)
(0.80981 0.0042408 0)
(0.820515 0.0042408 1.91235e-18)
(0.831271 0.0042408 0)
(0.842076 0.0042408 0)
(0.852933 0.0042408 0)
(0.863839 0.0042408 0)
(0.874797 0.0042408 0)
(0.885805 0.0042408 0)
(0.896865 0.0042408 0)
(0.907977 0.0042408 0)
(0.91914 0.0042408 0)
(0.930356 0.0042408 0)
(0.941624 0.0042408 0)
(0.952944 0.0042408 0)
(0.964317 0.0042408 0)
(0.975743 0.0042408 2.64858e-18)
(0.987222 0.0042408 0)
(0.998755 0.0042408 9.63735e-20)
(1.01034 0.0042408 0)
(1.02198 0.0042408 0)
(1.03368 0.0042408 0)
(1.04543 0.0042408 0)
(1.05723 0.0042408 0)
(1.06909 0.0042408 0)
(1.08101 0.0042408 0)
(1.09298 0.0042408 9.63735e-20)
(1.105 0.0042408 0)
(1.11708 0.0042408 0)
(1.12922 0.0042408 0)
(1.14142 0.0042408 -9.63735e-20)
(1.15367 0.0042408 2.47656e-18)
(1.16598 0.0042408 0)
(1.17834 0.0042408 0)
(1.19077 0.0042408 0)
(1.20325 0.0042408 0)
(1.21579 0.0042408 0)
(1.22839 0.0042408 0)
(1.24105 0.0042408 -3.36103e-18)
(1.25376 0.0042408 2.48598e-18)
(1.26654 0.0042408 0)
(1.27937 0.0042408 0)
(1.29227 0.0042408 0)
(1.30522 0.0042408 0)
(1.31824 0.0042408 0)
(1.33132 0.0042408 -8.39744e-19)
(1.34445 0.0042408 0)
(1.35765 0.0042408 0)
(1.37091 0.0042408 -9.63735e-20)
(1.38423 0.0042408 0)
(1.39762 0.0042408 0)
(1.41106 0.0042408 0)
(1.42457 0.0042408 0)
(1.43815 0.0042408 0)
(1.45178 0.0042408 0)
(1.46548 0.0042408 0)
(1.47924 0.0042408 0)
(1.49307 0.0042408 0)
(0.00346481 0.00542319 0)
(0.0104106 0.00542319 0)
(0.0173888 0.00542319 0)
(0.0243995 0.00542319 0)
(0.0314429 0.00542319 0)
(0.0385191 0.00542319 0)
(0.0456283 0.00542319 -1.44824e-18)
(0.0527707 0.00542319 -1.44241e-18)
(0.0599464 0.00542319 0)
(0.0671555 0.00542319 0)
(0.0743983 0.00542319 0)
(0.0816748 0.00542319 0)
(0.0889853 0.00542319 0)
(0.0963298 0.00542319 0)
(0.103709 0.00542319 0)
(0.111122 0.00542319 0)
(0.11857 0.00542319 0)
(0.126052 0.00542319 0)
(0.133569 0.00542319 0)
(0.141122 0.00542319 0)
(0.14871 0.00542319 0)
(0.156333 0.00542319 0)
(0.163991 0.00542319 0)
(0.171685 0.00542319 0)
(0.179416 0.00542319 0)
(0.187182 0.00542319 0)
(0.194984 0.00542319 0)
(0.202823 0.00542319 0)
(0.210698 0.00542319 0)
(0.21861 0.00542319 0)
(0.226559 0.00542319 0)
(0.234545 0.00542319 0)
(0.242569 0.00542319 -2.41767e-18)
(0.250629 0.00542319 0)
(0.258728 0.00542319 0)
(0.266864 0.00542319 0)
(0.275038 0.00542319 -2.28028e-18)
(0.28325 0.00542319 0)
(0.2915 0.00542319 0)
(0.299789 0.00542319 0)
(0.308116 0.00542319 0)
(0.316483 0.00542319 0)
(0.324888 0.00542319 0)
(0.333333 0.00542319 0)
(0.341817 0.00542319 2.29687e-18)
(0.35034 0.00542319 0)
(0.358903 0.00542319 0)
(0.367506 0.00542319 0)
(0.37615 0.00542319 0)
(0.384833 0.00542319 0)
(0.393557 0.00542319 0)
(0.402322 0.00542319 0)
(0.411127 0.00542319 0)
(0.419974 0.00542319 9.63735e-20)
(0.428862 0.00542319 0)
(0.437791 0.00542319 1.09596e-18)
(0.446762 0.00542319 2.18263e-18)
(0.455775 0.00542319 0)
(0.46483 0.00542319 0)
(0.473927 0.00542319 9.63735e-20)
(0.483066 0.00542319 0)
(0.492249 0.00542319 0)
(0.501473 0.00542319 0)
(0.510741 0.00542319 9.63735e-20)
(0.520052 0.00542319 0)
(0.529407 0.00542319 0)
(0.538805 0.00542319 -9.63735e-20)
(0.548247 0.00542319 0)
(0.557733 0.00542319 2.07459e-18)
(0.567263 0.00542319 0)
(0.576838 0.00542319 1.96079e-18)
(0.586457 0.00542319 0)
(0.596122 0.00542319 -9.23576e-19)
(0.605831 0.00542319 0)
(0.615585 0.00542319 0)
(0.625385 0.00542319 -9.10776e-19)
(0.635231 0.00542319 0)
(0.645123 0.00542319 -1.99743e-18)
(0.65506 0.00542319 0)
(0.665044 0.00542319 0)
(0.675075 0.00542319 0)
(0.685152 0.00542319 -2.84986e-18)
(0.695277 0.00542319 0)
(0.705448 0.00542319 0)
(0.715667 0.00542319 0)
(0.725934 0.00542319 0)
(0.736249 0.00542319 0)
(0.746611 0.00542319 0)
(0.757022 0.00542319 8.57328e-19)
(0.767482 0.00542319 1.80307e-18)
(0.77799 0.00542319 0)
(0.788547 0.00542319 1.78727e-18)
(0.799154 0.00542319 0)
(0.80981 0.00542319 9.33991e-19)
(0.820515 0.00542319 0)
(0.831271 0.00542319 1.75609e-18)
(0.842076 0.00542319 0)
(0.852933 0.00542319 2.5629e-18)
(0.863839 0.00542319 0)
(0.874797 0.00542319 0)
(0.885805 0.00542319 0)
(0.896865 0.00542319 0)
(0.907977 0.00542319 0)
(0.91914 0.00542319 0)
(0.930356 0.00542319 0)
(0.941624 0.00542319 0)
(0.952944 0.00542319 0)
(0.964317 0.00542319 0)
(0.975743 0.00542319 1.6587e-18)
(0.987222 0.00542319 0)
(0.998755 0.00542319 0)
(1.01034 0.00542319 0)
(1.02198 0.00542319 0)
(1.03368 0.00542319 0)
(1.04543 0.00542319 0)
(1.05723 0.00542319 0)
(1.06909 0.00542319 0)
(1.08101 0.00542319 0)
(1.09298 0.00542319 0)
(1.105 0.00542319 0)
(1.11708 0.00542319 0)
(1.12922 0.00542319 0)
(1.14142 0.00542319 0)
(1.15367 0.00542319 0)
(1.16598 0.00542319 0)
(1.17834 0.00542319 0)
(1.19077 0.00542319 0)
(1.20325 0.00542319 0)
(1.21579 0.00542319 0)
(1.22839 0.00542319 1.51329e-18)
(1.24105 0.00542319 -2.11551e-18)
(1.25376 0.00542319 0)
(1.26654 0.00542319 0)
(1.27937 0.00542319 0)
(1.29227 0.00542319 0)
(1.30522 0.00542319 0)
(1.31824 0.00542319 0)
(1.33132 0.00542319 0)
(1.34445 0.00542319 0)
(1.35765 0.00542319 0)
(1.37091 0.00542319 -2.88521e-18)
(1.38423 0.00542319 0)
(1.39762 0.00542319 2.86028e-18)
(1.41106 0.00542319 0)
(1.42457 0.00542319 0)
(1.43815 0.00542319 0)
(1.45178 0.00542319 0)
(1.46548 0.00542319 -9.63735e-20)
(1.47924 0.00542319 0)
(1.49307 0.00542319 -2.77481e-18)
(0.00346481 0.00671089 4.81868e-20)
(0.0104106 0.00671089 0)
(0.0173888 0.00671089 -1.27084e-18)
(0.0243995 0.00671089 0)
(0.0314429 0.00671089 -2.42356e-18)
(0.0385191 0.00671089 0)
(0.0456283 0.00671089 0)
(0.0527707 0.00671089 2.58405e-18)
(0.0599464 0.00671089 0)
(0.0671555 0.00671089 2.46642e-18)
(0.0743983 0.00671089 0)
(0.0816748 0.00671089 2.34899e-18)
(0.0889853 0.00671089 2.43491e-18)
(0.0963298 0.00671089 0)
(0.103709 0.00671089 0)
(0.111122 0.00671089 2.30747e-18)
(0.11857 0.00671089 0)
(0.126052 0.00671089 4.67035e-18)
(0.133569 0.00671089 0)
(0.141122 0.00671089 2.36308e-18)
(0.14871 0.00671089 1.1765e-18)
(0.156333 0.00671089 2.2466e-18)
(0.163991 0.00671089 0)
(0.171685 0.00671089 0)
(0.179416 0.00671089 0)
(0.187182 0.00671089 3.35863e-18)
(0.194984 0.00671089 0)
(0.202823 0.00671089 0)
(0.210698 0.00671089 0)
(0.21861 0.00671089 0)
(0.226559 0.00671089 0)
(0.234545 0.00671089 -9.63735e-20)
(0.242569 0.00671089 0)
(0.250629 0.00671089 0)
(0.258728 0.00671089 0)
(0.266864 0.00671089 0)
(0.275038 0.00671089 0)
(0.28325 0.00671089 0)
(0.2915 0.00671089 0)
(0.299789 0.00671089 0)
(0.308116 0.00671089 0)
(0.316483 0.00671089 0)
(0.324888 0.00671089 0)
(0.333333 0.00671089 0)
(0.341817 0.00671089 0)
(0.35034 0.00671089 -2.01945e-18)
(0.358903 0.00671089 -1.05345e-18)
(0.367506 0.00671089 -9.63735e-20)
(0.37615 0.00671089 0)
(0.384833 0.00671089 -2.92781e-18)
(0.393557 0.00671089 -1.97524e-18)
(0.402322 0.00671089 0)
(0.411127 0.00671089 -9.63735e-20)
(0.419974 0.00671089 0)
(0.428862 0.00671089 0)
(0.437791 0.00671089 -1.01421e-18)
(0.446762 0.00671089 0)
(0.455775 0.00671089 0)
(0.46483 0.00671089 0)
(0.473927 0.00671089 0)
(0.483066 0.00671089 0)
(0.492249 0.00671089 -9.88942e-19)
(0.501473 0.00671089 -1.87322e-18)
(0.510741 0.00671089 -1.96135e-18)
(0.520052 0.00671089 0)
(0.529407 0.00671089 0)
(0.538805 0.00671089 0)
(0.548247 0.00671089 0)
(0.557733 0.00671089 -9.60344e-19)
(0.567263 0.00671089 9.56334e-19)
(0.576838 0.00671089 0)
(0.586457 0.00671089 0)
(0.596122 0.00671089 0)
(0.605831 0.00671089 0)
(0.615585 0.00671089 9.36563e-19)
(0.625385 0.00671089 -9.63735e-20)
(0.635231 0.00671089 0)
(0.645123 0.00671089 0)
(0.65506 0.00671089 3.49154e-18)
(0.665044 0.00671089 1.73812e-18)
(0.675075 0.00671089 3.461e-18)
(0.685152 0.00671089 9.09643e-19)
(0.695277 0.00671089 2.62123e-18)
(0.705448 0.00671089 0)
(0.715667 0.00671089 0)
(0.725934 0.00671089 -2.4912e-18)
(0.736249 0.00671089 0)
(0.746611 0.00671089 2.46902e-18)
(0.757022 0.00671089 0)
(0.767482 0.00671089 -8.79933e-19)
(0.77799 0.00671089 0)
(0.788547 0.00671089 0)
(0.799154 0.00671089 0)
(0.80981 0.00671089 2.50009e-18)
(0.820515 0.00671089 0)
(0.831271 0.00671089 -8.58365e-19)
(0.842076 0.00671089 0)
(0.852933 0.00671089 0)
(0.863839 0.00671089 -1.59924e-18)
(0.874797 0.00671089 0)
(0.885805 0.00671089 8.40845e-19)
(0.896865 0.00671089 0)
(0.907977 0.00671089 0)
(0.91914 0.00671089 0)
(0.930356 0.00671089 0)
(0.941624 0.00671089 0)
(0.952944 0.00671089 0)
(0.964317 0.00671089 0)
(0.975743 0.00671089 0)
(0.987222 0.00671089 0)
(0.998755 0.00671089 -9.63735e-20)
(1.01034 0.00671089 -3.02208e-18)
(1.02198 0.00671089 0)
(1.03368 0.00671089 0)
(1.04543 0.00671089 -1.49144e-18)
(1.05723 0.00671089 0)
(1.06909 0.00671089 -2.95703e-18)
(1.08101 0.00671089 0)
(1.09298 0.00671089 -9.63735e-20)
(1.105 0.00671089 -9.63735e-20)
(1.11708 0.00671089 -9.63735e-20)
(1.12922 0.00671089 0)
(1.14142 0.00671089 0)
(1.15367 0.00671089 1.43423e-18)
(1.16598 0.00671089 0)
(1.17834 0.00671089 0)
(1.19077 0.00671089 0)
(1.20325 0.00671089 -9.63735e-20)
(1.21579 0.00671089 0)
(1.22839 0.00671089 0)
(1.24105 0.00671089 -1.48774e-18)
(1.25376 0.00671089 -1.28899e-18)
(1.26654 0.00671089 9.63735e-20)
(1.27937 0.00671089 1.37342e-18)
(1.29227 0.00671089 0)
(1.30522 0.00671089 0)
(1.31824 0.00671089 0)
(1.33132 0.00671089 0)
(1.34445 0.00671089 0)
(1.35765 0.00671089 0)
(1.37091 0.00671089 9.63735e-20)
(1.38423 0.00671089 0)
(1.39762 0.00671089 1.32106e-18)
(1.41106 0.00671089 1.31537e-18)
(1.42457 0.00671089 0)
(1.43815 0.00671089 1.30409e-18)
(1.45178 0.00671089 0)
(1.46548 0.00671089 0)
(1.47924 0.00671089 0)
(1.49307 0.00671089 0)
(0.00346481 0.00811328 0)
(0.0104106 0.00811328 1.17982e-18)
(0.0173888 0.00811328 2.15683e-18)
(0.0243995 0.00811328 1.16978e-18)
(0.0314429 0.00811328 -3.39803e-18)
(0.0385191 0.00811328 -9.63735e-20)
(0.0456283 0.00811328 9.63735e-20)
(0.0527707 0.00811328 0)
(0.0599464 0.00811328 0)
(0.0671555 0.00811328 0)
(0.0743983 0.00811328 0)
(0.0816748 0.00811328 -1.13057e-18)
(0.0889853 0.00811328 0)
(0.0963298 0.00811328 0)
(0.103709 0.00811328 0)
(0.111122 0.00811328 9.63735e-20)
(0.11857 0.00811328 0)
(0.126052 0.00811328 0)
(0.133569 0.00811328 0)
(0.141122 0.00811328 0)
(0.14871 0.00811328 0)
(0.156333 0.00811328 0)
(0.163991 0.00811328 0)
(0.171685 0.00811328 2.05247e-18)
(0.179416 0.00811328 1.06988e-18)
(0.187182 0.00811328 0)
(0.194984 0.00811328 -1.06086e-18)
(0.202823 0.00811328 3.07279e-18)
(0.210698 0.00811328 0)
(0.21861 0.00811328 0)
(0.226559 0.00811328 0)
(0.234545 0.00811328 9.63735e-20)
(0.242569 0.00811328 1.97226e-18)
(0.250629 0.00811328 0)
(0.258728 0.00811328 0)
(0.266864 0.00811328 0)