/*--------------------------------*- C++ -*----------------------------------*\
| =========                 |                                                 |
| \\      /  F ield         | OpenFOAM: The Open Source CFD Toolbox           |
|  \\    /   O peration     | Version:  v2012                                 |
|   \\  /    A nd           | Website:  www.openfoam.com                      |
|    \\/     M anipulation  |                                                 |
\*---------------------------------------------------------------------------*/
FoamFile
{
    version     2.0;
    format      ascii;
    class       volScalarField;
    location    "0";
    object      Cz;
}
// * * * * * * * * * * * * * * * * * * * * * * * * * * * * * * * * * * * * * //

dimensions      [0 1 0 0 0 0 0];


internalField   nonuniform List<scalar> 
15800
(
0
0
1.02799e-18
0
0
0
4.81868e-20
0
0
0
0
0
0
0
0
0
-1.88424e-18
-9.61953e-19
0
0
0
-1.84203e-18
0
0
0
0
-2.67708e-18
0
0
0
0
0
9.00364e-19
0
1.73676e-18
0
0
0
0
0
0
0
0
0
0
0
0
0
0
0
-2.44755e-18
-3.21673e-18
0
0
0
0
0
0
0
-4.81868e-20
0
0
0
-4.81868e-20
-3.76792e-18
0
-7.75696e-19
0
0
0
8.10471e-19
0
2.21883e-18
0
0
-2.18941e-18
6.46254e-19
0
0
0
1.41146e-18
-4.81868e-20
0
0
0
0
0
0
0
0
0
0
0
1.33146e-18
0
0
0
0
0
0
0
0
0
0
0
0
-1.25615e-18
0
0
-4.81868e-20
0
2.45676e-18
0
0
0
0
1.20125e-18
0
0
0
0
0
0
0
0
-2.25975e-18
0
0
0
-2.26716e-18
4.81868e-20
0
0
0
0
0
-4.81868e-20
0
0
0
1.07944e-18
0
2.13977e-18
0
0
0
4.81868e-20
0
0
0
0
0
0
-9.63735e-20
9.87716e-19
0
0
9.63735e-20
0
0
0
0
-9.55154e-19
0
0
0
0
-9.35409e-19
0
0
0
0
-9.63735e-20
0
0
0
-9.63735e-20
0
-9.63735e-20
0
3.35194e-18
0
-9.63735e-20
0
0
0
0
0
0
-9.63735e-20
-3.20834e-18
0
0
0
9.63735e-20
1.5695e-18
0
0
0
0
0
0
0
0
-9.63735e-20
0
0
-2.08972e-18
4.25642e-18
1.47662e-18
0
0
9.63735e-20
0
0
0
0
0
-1.42002e-18
0
0
0
-2.79124e-18
0
0
2.8516e-18
0
9.63735e-20
0
0
0
0
0
0
-2.65016e-18
0
-1.3137e-18
0
0
0
0
-9.63735e-20
0
-1.2747e-18
0
-1.26379e-18
0
2.40957e-18
0
0
0
0
0
0
0
0
0
0
0
-3.47416e-18
0
0
0
0
0
0
9.63735e-20
0
0
0
0
0
9.63735e-20
0
0
1.11172e-18
0
0
0
-9.63735e-20
0
1.08377e-18
0
-2.05288e-18
0
0
0
0
0
0
1.04328e-18
1.03889e-18
0
0
0
0
0
9.63735e-20
0
0
0
0
-1.74857e-18
-3.48179e-18
0
0
0
0
0
3.39126e-18
9.63735e-20
1.68082e-18
9.63735e-20
0
0
1.65161e-18
3.28878e-18
-3.27441e-18
-9.63735e-20
2.48259e-18
0
8.52586e-19
2.45086e-18
0
0
0
0
0
0
3.83568e-18
0
-7.2184e-19
1.43698e-18
1.52668e-18
0
0
0
0
0
0
0
0
-9.63735e-20
0
0
0
0
0
0
0
0
0
1.50206e-18
0
2.78712e-18
1.38754e-18
0
-9.63735e-20
0
0
-2.71571e-18
0
0
-1.34037e-18
0
0
9.63735e-20
0
0
0
0
-1.3913e-18
-2.48235e-18
0
0
-2.54566e-18
-1.36374e-18
0
-1.25653e-18
0
0
2.38452e-18
0
0
0
1.21936e-18
0
0
-3.515e-18
-1.10228e-18
0
0
0
2.26029e-18
0
0
-9.63735e-20
2.22039e-18
-9.63735e-20
0
-2.19096e-18
0
0
-1.12915e-18
0
-1.11959e-18
3.24814e-18
0
0
0
1.09606e-18
1.09142e-18
3.16404e-18
0
0
0
-1.06854e-18
-1.06403e-18
0
0
-9.63735e-20
0
9.63735e-20
9.63735e-20
1.96968e-18
-1.96099e-18
-1.02435e-18
0
-1.01576e-18
-1.01149e-18
9.63735e-20
0
0
-9.94622e-19
0
0
-9.63735e-20
0
0
0
0
-2.88542e-18
3.73479e-18
0
0
0
9.63735e-20
-1.7796e-18
9.34079e-19
-1.76401e-18
-4.81868e-20
8.58446e-19
0
1.6064e-18
0
8.44396e-19
0
0
0
0
-8.27198e-19
9.63735e-20
0
0
0
0
2.2285e-18
0
0
8.93605e-19
0
0
0
0
9.63735e-20
0
0
0
0
4.20675e-18
0
5.49519e-18
-1.41583e-18
2.81942e-18
0
0
0
0
0
0
-1.36763e-18
0
0
0
2.68838e-18
0
-1.42901e-18
0
0
0
2.61969e-18
0
0
9.63735e-20
3.76605e-18
3.74946e-18
0
0
3.70017e-18
9.63735e-20
0
0
2.48792e-18
-1.14226e-18
0
-1.22806e-18
0
0
0
0
0
0
0
0
0
0
0
-2.4296e-18
1.16164e-18
-1.1567e-18
-1.24815e-18
-9.63735e-20
-1.23838e-18
0
0
0
2.14908e-18
0
0
-9.63735e-20
-1.00743e-18
-1.09913e-18
0
-2.08332e-18
0
0
0
0
0
0
0
-9.63735e-20
0
0
-9.43912e-19
0
0
-2.98524e-18
0
-9.63735e-20
0
1.01004e-18
0
0
0
0
0
0
0
-2.83362e-18
0
2.71279e-18
9.63735e-20
0
0
9.52434e-19
0
0
0
0
9.63735e-20
0
0
-9.2116e-19
0
0
0
0
0
0
0
8.91029e-19
0
0
9.63735e-20
8.76379e-19
0
-8.69156e-19
3.26953e-18
0
0
-1.49587e-18
0
0
-9.63735e-20
0
-1.46369e-18
0
0
0
0
-2.76814e-18
2.75574e-18
0
0
0
-9.63735e-20
0
0
1.38345e-18
0
0
1.26924e-18
0
0
0
0
0
0
0
2.63849e-18
1.31357e-18
0
2.41185e-18
0
0
-1.28559e-18
0
0
0
0
0
0
0
1.24214e-18
1.23682e-18
0
0
0
0
0
0
0
-1.19516e-18
2.28375e-18
9.63735e-20
0
0
0
-1.16492e-18
0
0
0
0
0
0
-1.22705e-18
0
0
0
0
0
0
0
0
-9.63735e-20
0
0
0
0
0
0
0
0
0
-1.98999e-18
0
0
0
0
0
-2.03424e-18
0
0
1.91235e-18
0
0
0
0
0
0
0
0
0
0
0
0
0
2.64858e-18
0
9.63735e-20
0
0
0
0
0
0
0
9.63735e-20
0
0
0
-9.63735e-20
2.47656e-18
0
0
0
0
0
0
-3.36103e-18
2.48598e-18
0
0
0
0
0
-8.39744e-19
0
0
-9.63735e-20
0
0
0
0
0
0
0
0
0
0
0
0
0
0
0
-1.44824e-18
-1.44241e-18
0
0
0
0
0
0
0
0
0
0
0
0
0
0
0
0
0
0
0
0
0
0
0
0
-2.41767e-18
0
0
0
-2.28028e-18
0
0
0
0
0
0
0
2.29687e-18
0
0
0
0
0
0
0
0
9.63735e-20
0
1.09596e-18
2.18263e-18
0
0
9.63735e-20
0
0
0
9.63735e-20
0
0
-9.63735e-20
0
2.07459e-18
0
1.96079e-18
0
-9.23576e-19
0
0
-9.10776e-19
0
-1.99743e-18
0
0
0
-2.84986e-18
0
0
0
0
0
0
8.57328e-19
1.80307e-18
0
1.78727e-18
0
9.33991e-19
0
1.75609e-18
0
2.5629e-18
0
0
0
0
0
0
0
0
0
0
1.6587e-18
0
0
0
0
0
0
0
0
0
0
0
0
0
0
0
0
0
0
0
0
1.51329e-18
-2.11551e-18
0
0
0
0
0
0
0
0
0
-2.88521e-18
0
2.86028e-18
0
0
0
0
-9.63735e-20
0
-2.77481e-18
4.81868e-20
0
-1.27084e-18
0
-2.42356e-18
0
0
2.58405e-18
0
2.46642e-18
0
2.34899e-18
2.43491e-18
0
0
2.30747e-18
0
4.67035e-18
0
2.36308e-18
1.1765e-18
2.2466e-18
0
0
0
3.35863e-18
0
0
0
0
0
-9.63735e-20
0
0
0
0
0
0
0
0
0
0
0
0
0
-2.01945e-18
-1.05345e-18
-9.63735e-20
0
-2.92781e-18
-1.97524e-18
0
-9.63735e-20
0
0
-1.01421e-18
0
0
0
0
0
-9.88942e-19
-1.87322e-18
-1.96135e-18
0
0
0
0
-9.60344e-19
9.56334e-19
0
0
0
0
9.36563e-19
-9.63735e-20
0
0
3.49154e-18
1.73812e-18
3.461e-18
9.09643e-19
2.62123e-18
0
0
-2.4912e-18
0
2.46902e-18
0
-8.79933e-19
0
0
0
2.50009e-18
0
-8.58365e-19
0
0
-1.59924e-18
0
8.40845e-19
0
0
0
0
0
0
0
0
0
-9.63735e-20
-3.02208e-18
0
0
-1.49144e-18
0
-2.95703e-18
0
-9.63735e-20
-9.63735e-20
-9.63735e-20
0
0
1.43423e-18
0
0
0
-9.63735e-20
0
0
-1.48774e-18
-1.28899e-18
9.63735e-20
1.37342e-18
0
0
0
0
0
0
9.63735e-20
0
1.32106e-18
1.31537e-18
0
1.30409e-18
0
0
0
0
0
1.17982e-18
2.15683e-18
1.16978e-18
-3.39803e-18
-9.63735e-20
9.63735e-20
0
0
0
0
-1.13057e-18
0
0
0
9.63735e-20
0
0
0
0
0
0
0
2.05247e-18
1.06988e-18
0
-1.06086e-18
3.07279e-18
0
0
0
9.63735e-20
1.97226e-18
0
0
0
-1.01702e-18
0
0
0
0
0
1.98337e-18
-9.63735e-20
0
0
2.82916e-18
0
-1.8377e-18
-3.75562e-18
2.78055e-18
-9.54972e-19
0
0
1.88614e-18
2.72105e-18
-9.63735e-20
-3.62898e-18
-1.75855e-18
-9.23605e-19
-9.63735e-20
0
-9.12141e-19
0
0
-9.00835e-19
2.59493e-18
-1.78677e-18
9.63735e-20
0
-3.33661e-18
-1.75738e-18
0
0
0
-1.63216e-18
0
3.23588e-18
0
0
0
-9.63735e-20
0
-8.36216e-19
8.32782e-19
2.29535e-18
0
0
-9.63735e-20
0
0
8.09188e-19
-1.51539e-18
3.11397e-18
0
9.63735e-20
0
9.63735e-20
0
1.46992e-18
0
1.4572e-18
0
0
0
0
1.42591e-18
0
-2.73083e-18
9.63735e-20
0
0
0
0
9.63735e-20
9.63735e-20
1.36548e-18
0
0
0
-2.58779e-18
-1.3363e-18
9.63735e-20
2.64964e-18
0
3.84395e-18
0
0
0
2.58201e-18
9.63735e-20
0
-2.45252e-18
0
1.26354e-18
1.25812e-18
1.3491e-18
-1.24736e-18
0
0
4.7329e-18
0
0
-9.63735e-20
1.21049e-18
0
0
0
0
-9.63735e-20
0
1.98967e-18
0
0
0
-1.07287e-18
0
-9.63735e-20
0
3.06823e-18
-2.00446e-18
1.99561e-18
9.63735e-20
1.88165e-18
-3.00212e-18
0
0
0
-1.01557e-18
1.92623e-18
0
0
9.98619e-19
0
9.90264e-19
0
2.84958e-18
0
0
0
0
1.7305e-18
0
-9.63735e-20
0
-1.79497e-18
0
0
-3.54286e-18
-9.63735e-20
0
0
0
0
-8.14474e-19
0
0
0
1.69529e-18
0
-9.63735e-20
0
8.81094e-19
3.41343e-18
0
-3.28813e-18
0
7.66678e-19
0
-8.55952e-19
0
0
0
-1.58752e-18
0
0
-9.63735e-20
0
0
0
0
0
-8.11377e-19
0
0
-9.63735e-20
0
-3.08338e-18
0
0
0
0
0
0
0
-9.63735e-20
0
-2.85999e-18
0
4.15656e-18
-9.63735e-20
-9.63735e-20
-1.39933e-18
0
2.77454e-18
0
-1.47169e-18
-9.63735e-20
0
0
-1.35173e-18
-1.34591e-18
0
0
0
0
0
0
0
1.30026e-18
0
0
2.56715e-18
-1.27807e-18
0
0
0
-1.15991e-18
0
0
0
-2.46979e-18
2.45922e-18
9.63735e-20
0
1.31028e-18
1.30509e-18
9.63735e-20
0
0
1.18821e-18
2.26992e-18
9.63735e-20
0
0
-1.16311e-18
9.63735e-20
-2.40283e-18
0
9.63735e-20
-9.63735e-20
0
0
-2.15191e-18
-1.11937e-18
-1.11462e-18
0
-2.11401e-18
1.10051e-18
0
-1.88366e-18
0
9.63735e-20
1.00139e-18
0
0
-8.92474e-19
-9.84705e-19
-2.84537e-18
1.85658e-18
1.84841e-18
-9.63735e-20
0
9.63735e-20
0
-9.52253e-19
0
-1.79228e-18
0
0
0
8.3232e-19
0
0
1.73794e-18
0
0
0
0
0
0
-8.90861e-19
0
0
9.63735e-20
0
9.63735e-20
9.63735e-20
0
0
0
0
0
9.63735e-20
0
0
0
0
0
0
0
0
0
0
0
-9.63735e-20
-3.72904e-18
0
0
0
1.48481e-18
0
0
0
0
0
0
0
-1.33772e-18
0
-9.63735e-20
-9.63735e-20
-9.63735e-20
0
0
-1.39123e-18
0
0
0
-2.63835e-18
-9.63735e-20
0
0
-1.34393e-18
0
9.63735e-20
0
-1.4173e-18
0
0
0
-9.63735e-20
0
2.57444e-18
-1.28169e-18
2.55239e-18
-9.63735e-20
0
0
1.15807e-18
-1.24907e-18
0
3.71518e-18
0
0
2.44513e-18
0
0
-2.41391e-18
0
0
-2.28676e-18
0
2.36285e-18
3.33641e-18
0
2.2364e-18
0
0
4.41348e-18
-3.43998e-18
0
0
0
3.38189e-18
0
0
0
0
9.63735e-20
0
0
0
0
0
1.07587e-18
-2.14264e-18
0
0
0
-1.05335e-18
-2.00144e-18
0
0
0
-1.03135e-18
1.02701e-18
0
0
-9.63735e-20
0
1.77391e-18
2.69737e-18
0
1.84704e-18
0
8.19484e-19
0
0
-2.61713e-18
0
0
0
0
0
0
-3.32169e-18
1.74996e-18
0
0
-8.64187e-19
0
0
0
0
0
0
8.39587e-19
0
0
0
0
-3.09725e-18
1.54188e-18
-2.35095e-18
0
7.12739e-19
4.44933e-18
0
0
-7.95972e-19
0
0
0
0
1.55978e-18
2.91411e-18
0
0
1.4382e-18
0
9.63735e-20
0
0
1.40735e-18
2.8989e-18
0
0
0
-9.63735e-20
0
0
1.35946e-18
0
9.63735e-20
-1.34195e-18
0
0
-1.32469e-18
-1.31899e-18
0
0
0
9.63735e-20
-1.29088e-18
0
0
9.63735e-20
-2.53771e-18
-2.52683e-18
0
9.63735e-20
0
-1.2419e-18
-1.23658e-18
0
-1.22602e-18
0
-3.55031e-18
-9.63735e-20
-9.63735e-20
2.4001e-18
0
0
0
0
-9.63735e-20
0
0
0
0
-2.29977e-18
1.14499e-18
0
0
0
-1.02929e-18
2.24177e-18
2.23226e-18
-1.1114e-18
0
0
0
2.18537e-18
0
0
0
0
-4.18274e-18
0
0
0
0
0
0
-9.63735e-20
0
0
-1.02553e-18
1.02122e-18
-9.63735e-20
0
0
1.00417e-18
0
0
-9.63735e-20
0
0
0
-8.7871e-19
-9.63735e-20
0
9.63735e-20
-9.63735e-20
0
0
-3.59497e-18
0
-2.62441e-18
0
0
0
0
0
0
9.63735e-20
9.63735e-20
-4.0166e-18
-2.32248e-18
9.63735e-20
0
2.29163e-18
0
1.54632e-18
0
0
0
-8.07983e-19
-1.51299e-18
0
0
2.38459e-18
0
-2.86446e-18
-2.85161e-18
-1.4676e-18
0
0
0
0
0
0
0
0
0
-2.90692e-18
0
0
-9.63735e-20
9.63735e-20
0
0
0
-9.63735e-20
-2.79958e-18
0
-1.53272e-18
-2.57204e-18
0
2.64548e-18
-1.31705e-18
-3.93415e-18
-1.40212e-18
-2.50389e-18
0
0
0
-9.63735e-20
1.27246e-18
0
0
0
0
-1.24542e-18
2.48017e-18
-1.23478e-18
0
0
0
0
0
2.31051e-18
-1.10193e-18
1.19319e-18
0
-2.36606e-18
-2.2596e-18
0
1.16797e-18
0
0
0
1.14821e-18
1.14333e-18
-1.0421e-18
2.1709e-18
1.2252e-18
0
2.04578e-18
0
9.63735e-20
0
-1.1004e-18
9.63735e-20
9.94732e-19
0
1.08189e-18
0
0
0
0
-9.63735e-20
1.05477e-18
0
3.0413e-18
0
0
2.06546e-18
0
0
1.01975e-18
2.85366e-18
0
0
-1.00273e-18
1.90067e-18
0
1.78759e-18
-8.89647e-19
0
1.85919e-18
2.8247e-18
0
0
3.74976e-18
0
0
0
0
-9.63735e-20
-9.37718e-19
9.33813e-19
-2.69341e-18
-1.75574e-18
0
-9.18374e-19
-9.63735e-20
0
0
0
-2.60205e-18
-1.69512e-18
0
9.63735e-20
-9.63735e-20
-9.63735e-20
0
8.73744e-19
0
0
-1.51074e-18
0
0
0
0
-2.95645e-18
1.27906e-18
0
0
0
-1.25371e-18
9.63735e-20
0
0
0
-9.63735e-20
0
0
-4.09502e-18
0
0
0
0
0
0
0
0
0
0
0
0
0
0
0
0
0
0
0
0
0
0
0
0
-1.25432e-18
0
0
0
0
0
0
9.63735e-20
1.21202e-18
0
0
0
0
0
0
-9.63735e-20
0
0
2.22624e-18
-1.15636e-18
0
0
1.14167e-18
0
0
0
1.1224e-18
0
0
0
0
0
0
9.63735e-20
0
0
0
0
0
0
0
-1.05325e-18
0
0
0
0
0
-1.02691e-18
0
1.01829e-18
0
-2.83651e-18
0
0
0
0
9.63735e-20
0
0
0
0
0
0
0
0
-2.76011e-18
-1.80001e-18
-9.63735e-20
0
0
0
0
0
0
-9.63735e-20
0
9.63735e-20
0
0
0
0
0
0
0
0
0
8.72512e-19
0
0
0
0
0
0
9.63735e-20
0
0
8.37233e-19
-2.40501e-18
0
-9.63735e-20
0
0
0
-9.63735e-20
0
-3.74516e-18
0
0
-1.38904e-18
0
0
0
0
0
0
0
0
0
0
0
0
0
0
0
0
0
0
0
0
0
0
0
0
0
0
0
0
0
0
0
0
0
0
0
0
0
0
0
0
0
0
0
0
0
0
0
0
0
0
0
0
0
0
0
0
0
0
0
0
-2.13935e-18
0
0
1.05619e-18
0
1.90185e-18
0
0
0
0
0
0
0
-9.63735e-20
0
0
0
0
0
0
0
0
0
-2.91274e-18
0
0
0
0
0
0
0
0
0
0
9.27287e-19
0
0
0
0
0
0
0
0
0
0
0
0
0
0
0
0
0
0
0
0
0
0
0
0
-9.63735e-20
0
0
0
0
0
0
0
0
0
0
0
0
0
0
0
0
0
0
0
0
0
0
0
0
0
0
0
0
0
-1.28332e-18
-9.63735e-20
0
1.26687e-18
-9.63735e-20
0
1.34703e-18
2.39422e-18
0
-9.63735e-20
-1.22937e-18
0
2.24501e-18
1.1173e-18
0
0
-3.49818e-18
2.28977e-18
0
0
2.35574e-18
0
0
0
0
0
0
0
0
1.03715e-18
0
1.12392e-18
0
0
-3.23267e-18
0
0
0
0
3.0664e-18
-9.63735e-20
0
4.19428e-18
0
0
1.05913e-18
9.63735e-20
-2.10043e-18
0
1.04138e-18
9.63735e-20
-9.63735e-20
-1.02829e-18
9.27587e-19
0
0
-1.01111e-18
9.63735e-20
0
0
9.94242e-19
-1.88378e-18
0
-9.81798e-19
0
-2.72805e-18
0
0
1.92288e-18
-9.63735e-20
9.53429e-19
-9.49452e-19
0
0
-9.37629e-19
3.63852e-18
0
0
0
-9.63735e-20
0
0
-3.53121e-18
-9.63735e-20
-3.50119e-18
0
0
0
0
-1.66548e-18
9.63735e-20
8.73662e-19
0
-3.36948e-18
-3.16244e-18
-9.63735e-20
0
1.60816e-18
0
0
8.4179e-19
0
0
-7.35086e-19
-8.28048e-19
0
-8.21272e-19
-2.26098e-18
0
0
0
-2.22107e-18
0
0
0
0
0
0
0
0
-1.45476e-18
-1.44845e-18
0
9.63735e-20
0
9.63735e-20
0
0
-1.30876e-18
0
0
0
-1.28463e-18
0
-2.73822e-18
0
0
0
0
0
0
1.32833e-18
9.63735e-20
9.63735e-20
0
2.61124e-18
3.90002e-18
-1.29442e-18
0
0
-1.18625e-18
2.16964e-18
0
0
0
1.16119e-18
0
0
0
0
0
-9.63735e-20
0
0
-2.13869e-18
0
9.63735e-20
9.63735e-20
0
0
3.1719e-18
0
0
0
0
0
9.63735e-20
0
0
0
0
-9.63735e-20
-1.03551e-18
0
1.02681e-18
0
0
-2.849e-18
0
0
9.63735e-20
0
0
9.88658e-19
0
0
0
0
0
-2.79592e-18
0
0
-2.66347e-18
0
0
0
0
0
0
0
4.41131e-18
2.55821e-18
3.45996e-18
0
0
0
0
0
-1.68501e-18
0
0
0
0
0
-3.28257e-18
-3.26823e-18
0
0
0
2.45683e-18
0
0
0
0
8.33717e-19
0
0
0
0
0
0
0
0
0
0
-2.99499e-18
0
-2.08222e-18
1.57445e-18
0
0
0
0
0
0
0
0
0
0
0
0
0
0
0
0
0
0
0
1.35532e-18
0
2.68733e-18
0
0
0
0
0
0
0
0
0
0
0
0
0
0
0
0
0
0
0
-1.23285e-18
3.58636e-18
0
0
0
0
0
0
0
0
0
-9.63735e-20
9.63735e-20
0
0
-2.14822e-18
0
0
0
0
0
-1.0472e-18
0
0
0
0
-1.02533e-18
0
0
0
0
0
0
0
0
0
0
0
0
0
-1.83715e-18
-1.82907e-18
0
0
9.50715e-19
0
0
3.56275e-18
0
0
0
0
1.74264e-18
1.73499e-18
0
0
0
0
2.59417e-18
0
0
-8.85753e-19
0
0
8.74813e-19
1.54965e-18
8.67604e-19
0
0
0
0
-9.63735e-20
9.63735e-20
0
0
0
-1.56872e-18
0
0
0
0
-3.78899e-18
0
8.08961e-19
8.05654e-19
-3.0167e-18
0
0
1.58516e-18
-9.63735e-20
0
0
0
9.63735e-20
0
0
0
1.43169e-18
0
1.41932e-18
0
1.50344e-18
0
0
0
0
0
1.46737e-18
0
0
0
0
0
0
-1.23378e-18
0
-1.31873e-18
1.40943e-18
0
9.63735e-20
0
0
0
0
0
0
3.69313e-18
0
0
0
1.24166e-18
0
0
-2.45157e-18
0
9.63735e-20
0
0
-3.50308e-18
-1.1947e-18
0
0
0
0
1.16944e-18
0
0
0
-9.63735e-20
0
0
-2.17375e-18
0
0
0
0
0
0
-2.83065e-18
0
-1.01527e-18
-2.84028e-18
1.00676e-18
0
-9.01959e-19
9.63735e-20
0
0
0
0
0
0
0
1.82632e-18
0
0
-1.89872e-18
0
9.41462e-19
0
0
0
0
0
-2.65823e-18
0
0
5.05537e-18
9.63735e-20
-1.70224e-18
0
0
0
-7.88129e-19
0
1.65803e-18
0
0
0
0
-9.63735e-20
0
0
0
8.45187e-19
0
2.32201e-18
8.34809e-19
0
0
0
0
2.26075e-18
-3.06518e-18
0
0
2.31722e-18
2.40373e-18
0
0
0
0
0
0
-1.46095e-18
0
0
0
-9.63735e-20
-9.63735e-20
-9.63735e-20
0
0
0
0
-2.68938e-18
-2.77372e-18
-1.47724e-18
-1.47128e-18
0
0
0
-2.6063e-18
0
0
0
0
0
-2.63358e-18
1.4075e-18
-9.63735e-20
0
0
0
0
1.27769e-18
0
0
-1.26132e-18
-1.25591e-18
0
-2.39397e-18
2.47968e-18
3.60723e-18
0
0
1.21876e-18
0
0
-1.20321e-18
3.49783e-18
2.38591e-18
0
2.3656e-18
0
2.2491e-18
0
0
-1.15782e-18
0
0
0
0
4.43729e-18
0
0
-1.11904e-18
-1.1143e-18
4.34192e-18
2.20974e-18
0
-9.99158e-19
9.63735e-20
-2.07618e-18
4.23036e-18
-1.07711e-18
0
0
3.09418e-18
-2.98434e-18
-1.05456e-18
0
0
0
-1.0369e-18
0
0
-9.27489e-19
0
0
0
0
0
0
-2.67733e-18
9.63735e-20
3.47484e-18
9.13089e-19
0
0
-9.63735e-20
-9.63735e-20
0
3.36969e-18
0
-9.63735e-20
-8.79601e-19
0
0
0
0
-1.62681e-18
0
0
0
0
9.63735e-20
8.4053e-19
1.67415e-18
0
0
1.55725e-18
-9.63735e-20
9.63735e-20
0
2.34366e-18
0
9.63735e-20
0
0
-2.10146e-18
0
0
0
0
0
0
0
0
0
4.20463e-18
0
0
0
1.40901e-18
0
0
1.39082e-18
0
1.28246e-18
0
0
-9.63735e-20
0
0
0
-9.63735e-20
0
-1.42262e-18
0
0
0
0
0
0
-1.28684e-18
0
0
-3.71466e-18
0
0
0
0
-1.24335e-18
0
0
0
0
0
0
0
0
0
0
0
0
0
0
0
1.06471e-18
0
-1.15122e-18
0
0
0
0
0
1.12218e-18
-1.11742e-18
0
0
0
0
0
0
0
9.63735e-20
0
0
0
0
0
9.63735e-20
0
0
0
9.63735e-20
1.03105e-18
0
-2.04479e-18
0
-1.01382e-18
9.63735e-20
0
-1.0011e-18
-9.63735e-20
0
0
-9.63735e-20
-1.9606e-18
0
0
0
9.64005e-19
0
-9.5597e-19
9.51981e-19
9.63735e-20
1.66035e-18
1.74946e-18
-1.74224e-18
-8.67522e-19
0
0
3.23459e-18
0
0
0
0
0
1.57543e-18
0
-2.29441e-18
3.93552e-18
0
0
0
0
8.08886e-19
0
0
0
0
0
1.48217e-18
0
0
0
9.63735e-20
1.45031e-18
0
0
1.52792e-18
-9.63735e-20
0
-9.63735e-20
-2.81386e-18
0
-2.78959e-18
1.48514e-18
0
0
9.63735e-20
9.63735e-20
-9.63735e-20
0
-1.92747e-19
0
-1.33578e-18
2.66005e-18
-1.3243e-18
0
0
0
-1.30166e-18
-9.63735e-20
2.48462e-18
0
0
1.27395e-18
0
0
0
2.50448e-18
0
2.48307e-18
-2.47244e-18
2.36549e-18
0
0
9.63735e-20
0
0
0
-2.38916e-18
-2.28259e-18
1.18441e-18
0
0
1.07296e-18
0
0
0
-1.05318e-18
1.14466e-18
0
0
-9.63735e-20
1.12533e-18
1.12056e-18
0
9.63735e-20
0
-1.10168e-18
3.19466e-18
-1.09237e-18
0
0
0
1.07401e-18
2.04256e-18
-9.63735e-20
-2.98862e-18
-1.05598e-18
0
0
0
0
-1.97146e-18
9.63735e-20
0
0
0
0
-1.91985e-18
0
0
0
9.91303e-19
0
-9.63735e-20
0
-1.85324e-18
1.84508e-18
-2.80363e-18
9.63735e-20
1.82085e-18
0
0
1.79695e-18
0
0
-9.63735e-20
-9.30984e-19
0
0
0
0
0
0
-9.04244e-19
0
0
-8.93047e-19
2.57168e-18
0
-8.82006e-19
0
7.6622e-19
-8.11074e-19
0
8.04455e-19
4.61427e-18
0
0
0
0
0
0
0
0
0
0
-1.33927e-18
0
9.63735e-20
1.51346e-18
0
0
0
0
0
0
0
0
0
-1.35705e-18
0
-1.34538e-18
0
1.43019e-18
0
0
0
0
0
0
0
1.38498e-18
0
0
0
-1.26663e-18
-2.42602e-18
-9.63735e-20
0
0
0
0
0
0
9.63735e-20
-9.63735e-20
-3.62475e-18
-1.20309e-18
1.19795e-18
-9.63735e-20
0
-1.08631e-18
1.17764e-18
0
0
-2.22894e-18
1.15771e-18
0
-1.14788e-18
0
0
-2.36299e-18
0
-9.63735e-20
-3.16406e-18
0
-1.10947e-18
-1.10476e-18
-9.63735e-20
0
0
-9.63735e-20
2.06679e-18
3.03827e-18
0
0
0
1.05893e-18
0
0
-1.04559e-18
0
-9.63735e-20
0
0
9.27391e-19
-2.13529e-18
0
0
-1.00667e-18
0
-2.99471e-18
0
-1.8834e-18
0
0
0
0
0
0
0
9.63735e-20
9.63735e-20
0
1.79425e-18
4.51411e-18
0
-9.63735e-20
0
0
-1.74752e-18
-9.18113e-19
-9.14299e-19
1.72463e-18
0
9.02963e-19
1.70207e-18
9.63735e-20
0
-9.63735e-20
0
1.76152e-18
0
0
2.5133e-18
0
0
0
0
0
0
2.34257e-18
8.41632e-19
0
0
0
0
0
0
0
0
0
-1.50525e-18
0
4.09378e-18
0
9.63735e-20
0
0
-2.73364e-18
-2.62548e-18
0
2.69843e-18
-1.3434e-18
0
-2.56733e-18
1.32612e-18
0
0
1.30907e-18
-9.63735e-20
1.29784e-18
0
0
0
0
0
0
0
0
0
1.24323e-18
0
0
0
1.22209e-18
-3.55422e-18
1.11529e-18
1.20649e-18
-4.61259e-18
1.09983e-18
-9.63735e-20
9.63735e-20
0
0
-1.17092e-18
0
0
-9.63735e-20
0
0
-3.23128e-18
1.13649e-18
-3.29862e-18
0
0
0
0
2.11935e-18
0
-3.19911e-18
0
0
0
9.63735e-20
0
1.07091e-18
0
0
0
0
-2.09701e-18
0
0
-9.38934e-19
0
-1.02661e-18
2.97051e-18
-3.97562e-18
0
0
0
0
9.96808e-19
0
0
8.87955e-19
-9.63735e-20
-9.76105e-19
9.63735e-20
-8.71585e-19
-9.63913e-19
2.87966e-18
0
1.80741e-18
-3.59893e-18
-8.47594e-19
9.40033e-19
0
0
9.28341e-19
3.50517e-18
0
2.55768e-18
0
-8.12839e-19
0
9.63735e-20
0
8.94227e-19
8.90524e-19
9.63735e-20
0
0
0
0
8.68664e-19
0
-2.39179e-18
0
0
0
0
-9.63735e-20
0
0
8.3356e-19
3.12781e-18
-9.63735e-20
0
-7.23596e-19
0
-9.63735e-20
0
0
0
0
0
1.4907e-18
0
-9.63735e-20
9.63735e-20
9.63735e-20
0
-9.63735e-20
0
-1.53613e-18
0
9.63735e-20
1.32477e-18
0
0
9.92412e-19
0
-2.85597e-18
-1.86361e-18
0
9.63735e-20
1.83912e-18
0
0
0
-9.63735e-20
9.47714e-19
1.69478e-18
0
0
0
0
0
-3.489e-18
0
0
0
0
0
0
-9.63735e-20
0
0
0
8.79329e-19
0
1.64778e-18
9.63735e-20
0
0
0
0
0
0
0
0
0
0
3.1271e-18
0
0
0
0
0
-8.09769e-19
0
0
0
9.63735e-20
8.8974e-19
0
0
0
9.63735e-20
0
0
0
0
0
0
0
0
0
0
1.3964e-18
0
0
0
0
2.73303e-18
0
0
0
0
-1.33731e-18
0
0
0
0
0
0
0
0
-2.57286e-18
0
0
0
0
0
0
0
0
0
0
0
0
0
0
0
0
0
0
0
0
-2.25496e-18
0
0
0
0
0
0
0
0
0
1.12661e-18
0
-3.15846e-18
0
0
0
0
-3.08806e-18
0
0
0
0
0
0
0
0
0
2.09655e-18
0
0
0
0
0
0
0
0
0
0
0
0
0
0
1.1058e-18
1.00474e-18
0
0
-9.63735e-20
0
0
0
0
0
0
-1.05544e-18
0
0
0
-9.63735e-20
-1.03339e-18
0
0
0
0
0
0
0
9.9916e-19
0
0
0
1.86866e-18
0
9.63735e-20
0
0
0
0
0
0
-9.46182e-19
0
0
0
0
9.63735e-20
0
0
0
0
0
0
0
0
0
0
9.63735e-20
0
-9.63735e-20
0
0
0
0
0
0
0
0
1.59537e-18
0
0
0
0
0
0
-1.54735e-18
0
-4.50536e-18
0
0
0
0
0
0
0
0
0
0
0
0
0
0
0
0
0
0
0
0
0
-2.78813e-18
0
-2.86047e-18
0
0
0
0
0
0
0
0
-9.63735e-20
1.32361e-18
-9.63735e-20
0
0
0
0
0
0
0
9.63735e-20
0
0
0
1.25159e-18
1.24623e-18
0
-3.61036e-18
0
0
0
0
0
0
0
2.38792e-18
0
0
0
0
0
0
-9.63735e-20
0
0
-1.14407e-18
0
0
0
0
0
0
-1.20132e-18
-3.6361e-18
2.47766e-18
0
-1.22825e-18
-1.223e-18
1.21777e-18
-9.63735e-20
0
0
0
-9.63735e-20
0
0
9.63735e-20
1.17179e-18
0
-1.16183e-18
0
9.63735e-20
3.34481e-18
0
0
0
2.15901e-18
0
0
0
9.63735e-20
0
-9.63735e-20
0
-9.63735e-20
0
0
9.63735e-20
-9.63735e-20
-2.13434e-18
9.63735e-20
-1.05818e-18
1.05372e-18
-2.00217e-18
0
0
9.63735e-20
9.63735e-20
-9.30991e-19
1.94971e-18
0
-2.02892e-18
0
-1.00596e-18
0
9.63735e-20
-1.98671e-18
-1.88201e-18
-9.63735e-20
-9.80922e-19
-9.63735e-20
-9.72731e-19
0
1.83286e-18
-9.60585e-19
9.63735e-20
-2.76137e-18
-2.74945e-18
0
-9.40716e-19
0
0
0
0
1.74623e-18
0
0
0
-1.71582e-18
0
0
0
-2.48075e-18
-9.63735e-20
1.67124e-18
-7.83778e-19
0
8.72893e-19
-7.72916e-19
0
0
0
-9.63735e-20
0
-8.48014e-19
-9.63735e-20
-1.58573e-18
0
0
-9.63735e-20
-3.11655e-18
0
-7.24181e-19
2.25883e-18
-9.10222e-19
3.04933e-18
0
0
1.50487e-18
0
0
-2.27621e-18
9.63735e-20
0
0
0
0
0
0
0
-1.52477e-18
9.63735e-20
0
0
0
0
9.63735e-20
0
-9.63735e-20
-9.63735e-20
-1.27148e-18
9.63735e-20
-9.63735e-20
9.63735e-20
9.63735e-20
-2.58086e-18
9.63735e-20
0
9.63735e-20
1.31571e-18
0
-3.81689e-18
0
-2.49009e-18
0
2.5643e-18
0
0
2.43506e-18
0
-1.25489e-18
0
0
0
9.63735e-20
0
0
0
0
0
0
0
0
0
0
0
0
0
0
0
0
0
0
0
0
0
0
0
0
0
0
0
0
0
0
0
0
0
0
0
0
0
0
0
0
0
0
0
0
0
0
0
0
0
0
0
0
0
0
0
0
0
0
0
0
0
0
0
0
0
0
0
0
0
9.63735e-20
0
0
0
0
0
0
0
0
0
0
0
0
0
0
0
0
0
0
0
0
0
0
0
0
0
0
0
0
0
0
0
0
0
9.63735e-20
0
0
-3.43318e-18
0
-9.63735e-20
0
0
0
0
0
0
0
0
0
0
0
0
0
0
0
9.63735e-20
0
0
0
0
0
0
0
0
0
0
0
0
0
-9.63735e-20
0
0
0
0
-1.41983e-18
0
0
1.40149e-18
0
9.63735e-20
0
-9.63735e-20
-9.63735e-20
0
0
0
0
0
0
0
0
0
0
0
0
-4.28715e-18
0
-1.25579e-18
0
0
9.63735e-20
0
0
0
9.63735e-20
0
9.63735e-20
0
1.38108e-18
0
0
2.63018e-18
0
0
0
0
0
0
2.74175e-18
0
1.4077e-18
0
0
0
0
0
0
0
0
3.68816e-18
0
0
1.24536e-18
0
3.6078e-18
0
0
2.34152e-18
0
0
0
0
-1.09676e-18
0
2.36596e-18
0
2.34584e-18
0
-1.16295e-18
0
0
-1.14817e-18
0
0
1.13359e-18
0
0
0
0
0
0
0
0
2.08575e-18
0
0
-9.63735e-20
0
0
0
0
0
0
-9.49474e-19
0
0
0
0
1.02402e-18
0
0
0
0
0
0
0
9.90129e-19
0
9.81852e-19
0
0
0
0
0
0
0
-9.63735e-20
0
-9.63735e-20
0
2.70495e-18
0
0
2.67014e-18
0
2.55082e-18
0
-3.53141e-18
-8.0681e-19
-9.63735e-20
0
-2.57963e-18
0
0
-9.63735e-20
0
0
0
1.63665e-18
9.63735e-20
-8.59378e-19
-8.55837e-19
0
0
-8.45311e-19
0
0
-9.63735e-20
1.71998e-18
9.28389e-19
0
9.20684e-19
-3.57106e-18
0
0
0
0
8.97994e-19
8.94273e-19
0
1.77377e-18
0
0
0
0
2.50975e-18
1.73025e-18
0
0
0
0
0
0
-3.16923e-18
0
0
0
0
-2.27741e-18
3.81094e-18
0
4.49437e-18
0
-9.63735e-20
9.63735e-20
0
0
0
0
-2.95573e-18
0
0
-1.45872e-18
-9.63735e-20
1.4461e-18
0
0
0
9.63735e-20
-2.83014e-18
0
0
0
0
0
9.63735e-20
9.63735e-20
0
9.63735e-20
0
1.44566e-18
-1.34347e-18
-2.67537e-18
2.66384e-18
-2.65238e-18
0
-2.53322e-18
0
0
0
0
0
0
0
-3.71449e-18
2.52968e-18
-1.16304e-18
0
-1.34502e-18
9.63735e-20
0
-9.63735e-20
0
-9.63735e-20
0
0
0
0
0
0
0
2.36205e-18
2.25561e-18
-9.63735e-20
0
0
-2.2158e-18
0
1.24265e-18
0
-1.13655e-18
0
-2.15746e-18
0
-3.15938e-18
3.14516e-18
0
-9.63735e-20
0
-1.0939e-18
-1.08927e-18
0
0
0
0
0
1.06194e-18
0
2.106e-18
0
-1.04414e-18
0
1.03536e-18
-1.031e-18
0
9.63735e-20
-1.01805e-18
9.63735e-20
0
1.00528e-18
0
9.9686e-19
0
-9.63735e-20
0
0
0
0
-9.68009e-19
0
0
0
4.56695e-18
0
0
0
0
1.76816e-18
0
1.03804e-18
0
0
1.02499e-18
0
0
2.02424e-18
0
0
0
0
2.07851e-18
0
0
0
-9.74573e-19
0
9.6644e-19
0
0
0
0
0
0
0
1.77294e-18
0
0
0
-9.63735e-20
-9.63735e-20
0
0
0
0
0
0
0
1.67455e-18
1.66723e-18
0
0
0
-2.40921e-18
0
0
0
0
0
0
-3.08135e-18
0
0
0
-8.28861e-19
0
0
2.35975e-18
0
0
0
0
1.50783e-18
0
0
0
0
0
0
-1.55898e-18
0
0
0
0
-1.4312e-18
0
0
0
0
0
9.63735e-20
0
0
0
0
0
0
0
0
0
0
0
0
0
0
0
-1.39772e-18
0
0
0
0
0
0
0
0
0
0
0
0
-2.46126e-18
2.35436e-18
0
0
0
0
0
0
0
0
0
0
0
0
0
-1.05781e-18
0
0
0
1.13468e-18
0
0
0
0
0
0
0
9.63735e-20
0
0
0
0
0
0
0
0
0
1.05128e-18
0
0
0
0
0
0
1.14738e-18
1.1425e-18
0
2.26562e-18
-2.06325e-18
9.63735e-20
0
0
1.10898e-18
0
0
9.63735e-20
0
2.1714e-18
0
0
-3.11959e-18
0
0
9.63735e-20
0
1.04956e-18
0
-1.98509e-18
2.9163e-18
9.63735e-20
1.02764e-18
1.02332e-18
0
-9.63735e-20
-2.02095e-18
1.00623e-18
0
0
9.93622e-19
0
9.85313e-19
-9.63735e-20
-9.63735e-20
0
9.68924e-19
9.63735e-20
0
0
-9.63735e-20
-2.65384e-18
0
-9.40968e-19
0
0
-1.76215e-18
0
0
-9.1772e-19
0
0
9.63735e-20
3.32119e-18
8.98836e-19
0
-8.91405e-19
0
0
2.54478e-18
-1.56075e-18
0
0
9.63735e-20
0
8.58805e-19
0
0
0
-1.59312e-18
0
-9.63735e-20
-9.63735e-20
0
0
9.63735e-20
0
-3.07689e-18
0
0
0
-9.0049e-19
3.01058e-18
0
0
0
1.47932e-18
0
0
1.46015e-18
0
0
9.63735e-20
1.33863e-18
-1.42879e-18
0
1.41645e-18
0
9.63735e-20
0
1.48849e-18
0
0
0
0
2.62828e-18
0
0
-9.63735e-20
0
-1.52597e-18
0
-9.63735e-20
9.63735e-20
0
0
0
0
1.38441e-18
-2.46864e-18
0
-1.36789e-18
0
-2.52128e-18
0
-2.40334e-18
-1.2445e-18
0
-9.63735e-20
-2.36081e-18
0
0
-2.32942e-18
0
1.20256e-18
0
0
-1.18723e-18
1.18217e-18
9.63735e-20
0
1.16712e-18
-1.26005e-18
2.60522e-18
1.29701e-18
0
0
1.28037e-18
0
0
0
-1.25854e-18
0
0
0
0
0
1.22655e-18
0
0
0
0
0
1.09907e-18
0
-3.45942e-18
0
1.17518e-18
-9.63735e-20
0
-1.16023e-18
-1.15529e-18
9.63735e-20
0
0
9.63735e-20
2.16552e-18
0
0
0
2.22375e-18
0
0
0
-1.09315e-18
0
3.15539e-18
9.63735e-20
0
0
0
0
0
-1.05228e-18
9.63735e-20
0
-3.02072e-18
2.91122e-18
0
-1.02597e-18
0
0
-9.63735e-20
-1.00883e-18
1.00459e-18
1.00038e-18
0
0
0
-9.63735e-20
0
0
-1.94283e-18
0
-9.63312e-19
0
0
0
9.47329e-19
0
9.63735e-20
0
0
1.66278e-18
0
9.63735e-20
1.73611e-18
0
0
0
9.63735e-20
-1.79478e-18
9.63735e-20
0
0
8.82625e-19
0
0
0
3.1834e-18
8.64547e-19
-9.63735e-20
-1.61849e-18
0
0
0
0
0
0
0
-8.29631e-19
0
-1.54931e-18
0
-2.25559e-18
0
0
0
0
0
-7.96301e-19
0
0
0
-1.56679e-18
0
0
0
0
0
0
0
0
0
0
0
0
0
0
1.37781e-18
0
0
0
0
0
0
0
0
0
0
0
1.30823e-18
0
0
0
0
0
0
0
0
0
0
0
0
-2.78696e-18
2.67854e-18
0
0
0
0
0
0
0
-9.63735e-20
0
0
0
0
0
0
0
0
0
0
-1.27824e-18
0
-9.63735e-20
0
-2.5129e-18
0
0
0
1.23506e-18
0
0
0
0
0
0
0
0
0
0
-2.26015e-18
0
0
0
0
0
0
1.1436e-18
0
0
0
0
0
-2.22954e-18
0
0
0
0
0
3.16385e-18
0
0
0
0
3.09554e-18
0
1.91727e-18
0
0
0
0
0
0
0
0
0
0
0
0
0
0
0
0
0
-9.78006e-19
0
9.69841e-19
0
0
0
0
0
0
0
0
0
0
0
0
0
0
0
0
0
0
0
0
0
0
0
0
0
0
0
0
0
0
0
0
0
9.63735e-20
0
0
0
0
0
0
0
0
1.52659e-18
0
8.0486e-19
0
0
0
0
0
0
0
-8.24356e-19
0
0
0
0
0
8.51178e-19
8.47675e-19
-3.184e-18
9.63735e-20
9.63735e-20
0
0
0
0
-8.20228e-19
0
-6.20777e-19
0
0
0
8.00303e-19
0
0
0
0
-9.63735e-20
0
-1.45913e-18
0
-1.25376e-18
9.63735e-20
2.868e-18
1.42779e-18
9.63735e-20
-9.63735e-20
0
0
-9.63735e-20
-4.07706e-18
0
0
0
0
0
0
1.34966e-18
2.68769e-18
2.67611e-18
-1.33229e-18
0
1.32085e-18
0
0
0
-1.2019e-18
2.58539e-18
-1.28714e-18
-1.28162e-18
2.45585e-18
0
0
0
9.63735e-20
0
0
0
0
0
0
0
-2.5205e-18
-1.20688e-18
0
0
0
0
-1.08498e-18
0
1.07493e-18
9.63735e-20
0
0
0
0
-2.18705e-18
1.13686e-18
0
2.15808e-18
-3.17458e-18
0
-2.22588e-18
0
-9.63735e-20
0
0
2.17914e-18
1.08496e-18
0
0
0
-2.13346e-18
-2.02808e-18
-9.63735e-20
0
0
9.63735e-20
0
1.03564e-18
1.03128e-18
-1.02694e-18
-9.63735e-20
0
0
0
1.00555e-18
1.00133e-18
0
0
0
0
0
0
-9.72335e-19
0
0
0
-1.816e-18
-2.76021e-18
0
0
0
-1.77646e-18
0
9.28638e-19
0
0
9.63735e-20
0
0
0
-9.01973e-19
-9.63735e-20
8.94512e-19
0
0
3.34106e-18
-2.54302e-18
0
0
0
0
0
-1.73258e-18
0
0
0
1.79701e-18
0
0
0
-1.76565e-18
0
0
1.74252e-18
0
-9.11825e-19
3.53579e-18
0
0
0
9.63735e-20
0
0
0
0
1.74952e-18
0
0
0
-1.62444e-18
0
0
0
-3.28892e-18
0
0
0
0
0
0
0
0
0
1.62447e-18
0
0
0
0
0
0
0
0
0
0
-4.27365e-18
0
0
2.87564e-18
0
0
0
9.63735e-20
0
0
0
0
0
-9.63735e-20
0
1.36499e-18
0
0
0
0
0
1.23369e-18
0
0
0
0
-1.20533e-18
0
0
-2.47362e-18
0
0
0
-2.52617e-18
0
0
0
0
1.23626e-18
0
0
0
0
0
0
0
-1.19462e-18
0
0
0
0
0
0
1.06306e-18
2.11625e-18
0
2.2894e-18
0
0
0
0
0
0
0
0
0
0
0
-9.63735e-20
0
9.63735e-20
0
0
0
0
0
0
0
0
0
0
9.63735e-20
0
0
0
0
0
0
0
0
0
9.87182e-19
0
0
0
0
-2.17199e-18
0
-1.07683e-18
9.63735e-20
0
9.6687e-19
0
0
0
0
0
-3.10989e-18
9.63735e-20
0
0
1.0193e-18
-1.01501e-18
1.01075e-18
0
0
0
2.8853e-18
0
0
0
-2.83566e-18
0
0
0
0
0
0
-9.49118e-19
0
0
-8.40927e-19
0
0
9.25646e-19
-3.49444e-18
0
0
0
0
0
0
0
0
0
0
0
0
0
1.64313e-18
0
-3.25761e-18
7.6266e-19
0
0
0
0
0
0
-4.6221e-18
0
0
0
0
0
1.53218e-18
0
0
0
0
2.99834e-18
8.9089e-19
2.37383e-18
0
0
9.63735e-20
0
0
0
0
0
0
0
0
0
0
0
0
-1.38649e-18
0
0
0
2.72541e-18
0
0
0
0
0
0
0
0
0
0
-1.29953e-18
9.63735e-20
0
0
0
0
0
0
0
0
0
0
0
0
0
0
0
0
0
0
0
0
2.26861e-18
-1.17745e-18
0
9.63735e-20
0
0
1.24897e-18
9.63735e-20
0
0
9.63735e-20
0
0
0
0
0
-2.20917e-18
0
0
-1.09061e-18
0
0
2.42245e-18
0
0
0
0
-3.36403e-18
0
0
0
0
-1.16055e-18
3.46683e-18
0
-9.63735e-20
0
0
1.13126e-18
0
0
3.15799e-18
0
0
0
0
0
0
0
0
0
-1.9483e-18
-9.63735e-20
9.63735e-20
0
0
-2.09626e-18
0
0
0
1.03058e-18
0
1.02193e-18
0
0
0
0
0
0
0
0
0
0
0
-9.71678e-19
-9.63735e-20
0
0
0
0
0
0
0
0
1.76741e-18
0
0
0
0
0
0
0
2.51136e-18
0
0
0
8.86527e-19
1.66935e-18
0
0
2.42313e-18
7.71987e-19
0
0
0
0
0
0
-3.18176e-18
0
0
0
0
-3.11304e-18
0
0
0
0
0
0
0
0
-7.9651e-19
0
0
0
0
0
0
0
4.2401e-18
1.43923e-18
0
0
0
0
9.63735e-20
0
-1.39621e-18
0
0
0
-2.84086e-18
0
0
9.63735e-20
0
0
0
0
0
-1.31993e-18
0
0
0
0
0
0
0
0
0
1.26431e-18
1.25889e-18
-1.2535e-18
0
0
0
-1.23216e-18
0
0
1.85237e-18
1.92694e-18
0
0
1.02829e-18
-2.0845e-18
0
0
-1.08535e-18
0
0
3.34273e-18
2.29145e-18
-1.16136e-18
4.81868e-20
0
0
0
0
0
2.60264e-18
-1.34292e-18
0
2.66102e-18
0
0
0
0
0
0
0
2.20214e-18
0
0
0
0
0
1.61135e-18
0
-3.26424e-18
-8.63653e-19
0
2.56479e-18
0
-2.68519e-18
0
0
0
0
0
0
0
9.93897e-19
0
2.96258e-18
1.03281e-18
0
0
0
0
0
0
0
0
0
0
0
0
0
-1.33427e-18
-9.63735e-20
1.27065e-18
0
0
1.32156e-18
0
0
-9.63735e-20
0
1.50773e-18
0
0
0
0
1.50773e-18
0