/*--------------------------------*- C++ -*----------------------------------*\
| =========                 |                                                 |
| \\      /  F ield         | OpenFOAM: The Open Source CFD Toolbox           |
|  \\    /   O peration     | Version:  v2012                                 |
|   \\  /    A nd           | Website:  www.openfoam.com                      |
|    \\/     M anipulation  |                                                 |
\*---------------------------------------------------------------------------*/
FoamFile
{
    version     2.0;
    format      ascii;
    class       volVectorField;
    object      U;
}
// * * * * * * * * * * * * * * * * * * * * * * * * * * * * * * * * * * * * * //

dimensions      [0 1 -1 0 0 0 0];

internalField   uniform (0 0 0);

boundaryField
{
    outlet
    {
        type zeroGradient;
    }
    fixedWalls_bottom
    {
        type fixedValue;
        value uniform (0 0 0);
}
    fixedWalls_top
    {
        type fixedValue;
        value uniform (0 0 0);
    }
    inlet{
        type fixedValue;
        value nonuniform List<vector>
52
(
(0.044973 0 0)
(0.132863 0 0)
(0.219475 0 0)
(0.304363 0 0)
(0.387049 0 0)
(0.467068 0 0)
(0.543909 0 0)
(0.617125 0 0)
(0.686275 0 0)
(0.750961 0 0)
(0.810818 0 0)
(0.865535 0 0)
(0.914911 0 0)
(0.958792 0 0)
(0.997138 0 0)
(1.030024 0 0)
(1.057611 0 0)
(1.080185 0 0)
(1.098134 0 0)
(1.111929 0 0)
(1.122118 0 0)
(1.129291 0 0)
(1.134057 0 0)
(1.137002 0 0)
(1.138664 0 0)
(1.139496 0 0)
(1.139849 0 0)
(1.139968 0 0)
(1.139996 0 0)
(1.140000 0 0)
(1.140000 0 0)
(1.140000 0 0)
(1.139999 0 0)
(1.139969 0 0)
(1.139749 0 0)
(1.138879 0 0)
(1.136479 0 0)
(1.131232 0 0)
(1.121480 0 0)
(1.105380 0 0)
(1.081098 0 0)
(1.046976 0 0)
(1.001676 0 0)
(0.944273 0 0)
(0.874297 0 0)
(0.791703 0 0)
(0.696867 0 0)
(0.590543 0 0)
(0.473744 0 0)
(0.347720 0 0)
(0.213836 0 0)
(0.073533 0 0)
)
;
}

}


// ************************************************************************* //
