# Force coefficients
# dragDir     : (1.000000e+00 0.000000e+00 0.000000e+00)
# sideDir     : (0.000000e+00 0.000000e+00 -1.000000e+00)
# liftDir     : (0.000000e+00 1.000000e+00 0.000000e+00)
# rollAxis    : (1.000000e+00 0.000000e+00 0.000000e+00)
# pitchAxis   : (0.000000e+00 0.000000e+00 -1.000000e+00)
# yawAxis     : (0.000000e+00 1.000000e+00 0.000000e+00)
# magUInf     : 1.000000e+00
# lRef        : 1.000000e+00
# Aref        : 1.000000e+00
# CofR        : (0.000000e+00 0.000000e+00 0.000000e+00)
#
# Time        	Cd            	Cs            	Cl            	CmRoll        	CmPitch       	CmYaw         	Cd(f)         	Cd(r)         	Cs(f)         	Cs(r)         	Cl(f)         	Cl(r)         
0.02          	2.309208e+02	0.000000e+00	4.727871e-02	-2.363935e-02	1.615997e+03	1.154604e+02	1.154368e+02	1.154841e+02	1.154604e+02	-1.154604e+02	1.616020e+03	-1.615973e+03
0.04          	-1.199230e+02	0.000000e+00	-3.396763e-02	1.698382e-02	-8.391388e+02	-5.996151e+01	-5.994453e+01	-5.997850e+01	-5.996151e+01	5.996151e+01	-8.391558e+02	8.391218e+02
0.06          	1.068288e+01	0.000000e+00	1.549404e-02	-7.747018e-03	7.463314e+01	5.341439e+00	5.333692e+00	5.349186e+00	5.341439e+00	-5.341439e+00	7.464088e+01	-7.462539e+01
0.08          	-8.862077e-01	0.000000e+00	1.866965e-03	-9.334826e-04	-6.221369e+00	-4.431038e-01	-4.440373e-01	-4.421704e-01	-4.431038e-01	4.431038e-01	-6.220435e+00	6.222302e+00
0.1           	4.011190e+00	0.000000e+00	-1.428948e-04	7.144741e-05	2.807975e+01	2.005595e+00	2.005667e+00	2.005524e+00	2.005595e+00	-2.005595e+00	2.807968e+01	-2.807982e+01
0.12          	2.110168e+00	0.000000e+00	-2.888824e-04	1.444412e-04	1.477393e+01	1.055084e+00	1.055228e+00	1.054939e+00	1.055084e+00	-1.055084e+00	1.477378e+01	-1.477407e+01
0.14          	2.830560e+00	0.000000e+00	-1.545836e-04	7.729180e-05	1.981540e+01	1.415280e+00	1.415358e+00	1.415203e+00	1.415280e+00	-1.415280e+00	1.981532e+01	-1.981547e+01
0.16          	2.515305e+00	0.000000e+00	-1.311303e-04	6.556517e-05	1.760838e+01	1.257652e+00	1.257718e+00	1.257587e+00	1.257652e+00	-1.257652e+00	1.760831e+01	-1.760844e+01
0.18          	2.586646e+00	0.000000e+00	-1.316629e-04	6.583145e-05	1.810777e+01	1.293323e+00	1.293389e+00	1.293257e+00	1.293323e+00	-1.293323e+00	1.810770e+01	-1.810784e+01
0.2           	2.499720e+00	0.000000e+00	-1.029948e-04	5.149739e-05	1.749901e+01	1.249860e+00	1.249911e+00	1.249808e+00	1.249860e+00	-1.249860e+00	1.749896e+01	-1.749906e+01
0.22          	2.479152e+00	0.000000e+00	-1.462699e-04	7.313495e-05	1.735544e+01	1.239576e+00	1.239649e+00	1.239503e+00	1.239576e+00	-1.239576e+00	1.735537e+01	-1.735552e+01
0.24          	2.432617e+00	0.000000e+00	-9.434992e-05	4.717496e-05	1.702920e+01	1.216309e+00	1.216356e+00	1.216261e+00	1.216309e+00	-1.216309e+00	1.702916e+01	-1.702925e+01
0.26          	2.398770e+00	0.000000e+00	-1.272654e-04	6.363271e-05	1.679259e+01	1.199385e+00	1.199449e+00	1.199322e+00	1.199385e+00	-1.199385e+00	1.679252e+01	-1.679265e+01
0.28          	2.360155e+00	0.000000e+00	-8.277488e-05	4.138744e-05	1.652186e+01	1.180078e+00	1.180119e+00	1.180036e+00	1.180078e+00	-1.180078e+00	1.652182e+01	-1.652190e+01
0.3           	2.323374e+00	0.000000e+00	-1.318792e-04	6.593960e-05	1.626485e+01	1.161687e+00	1.161753e+00	1.161621e+00	1.161687e+00	-1.161687e+00	1.626479e+01	-1.626492e+01
0.32          	2.286037e+00	0.000000e+00	-9.370123e-05	4.685061e-05	1.600313e+01	1.143019e+00	1.143065e+00	1.142972e+00	1.143019e+00	-1.143019e+00	1.600308e+01	-1.600318e+01
0.34          	2.258763e+00	0.000000e+00	-1.271573e-04	6.357863e-05	1.581253e+01	1.129382e+00	1.129445e+00	1.129318e+00	1.129382e+00	-1.129382e+00	1.581247e+01	-1.581259e+01
0.36          	2.227496e+00	0.000000e+00	-8.838228e-05	4.419114e-05	1.559329e+01	1.113748e+00	1.113792e+00	1.113704e+00	1.113748e+00	-1.113748e+00	1.559325e+01	-1.559334e+01
0.38          	2.189804e+00	0.000000e+00	-1.050630e-04	5.253149e-05	1.532961e+01	1.094902e+00	1.094955e+00	1.094850e+00	1.094902e+00	-1.094902e+00	1.532956e+01	-1.532966e+01
0.4           	2.157414e+00	0.000000e+00	-9.294823e-05	4.647411e-05	1.510276e+01	1.078707e+00	1.078754e+00	1.078661e+00	1.078707e+00	-1.078707e+00	1.510271e+01	-1.510281e+01
0.42          	2.130255e+00	0.000000e+00	-1.021718e-04	5.108589e-05	1.491274e+01	1.065128e+00	1.065179e+00	1.065077e+00	1.065128e+00	-1.065128e+00	1.491269e+01	-1.491279e+01
0.44          	2.106262e+00	0.000000e+00	-9.306484e-05	4.653242e-05	1.474470e+01	1.053131e+00	1.053178e+00	1.053084e+00	1.053131e+00	-1.053131e+00	1.474465e+01	-1.474474e+01
0.46          	2.084694e+00	0.000000e+00	-1.018248e-04	5.091238e-05	1.459381e+01	1.042347e+00	1.042398e+00	1.042296e+00	1.042347e+00	-1.042347e+00	1.459375e+01	-1.459386e+01
0.48          	2.063184e+00	0.000000e+00	-9.349463e-05	4.674731e-05	1.444316e+01	1.031592e+00	1.031639e+00	1.031545e+00	1.031592e+00	-1.031592e+00	1.444311e+01	-1.444320e+01
0.5           	2.032371e+00	0.000000e+00	-8.410617e-05	4.205309e-05	1.422738e+01	1.016185e+00	1.016227e+00	1.016143e+00	1.016185e+00	-1.016185e+00	1.422734e+01	-1.422742e+01
0.52          	2.009280e+00	0.000000e+00	-7.958898e-05	3.979449e-05	1.406570e+01	1.004640e+00	1.004680e+00	1.004600e+00	1.004640e+00	-1.004640e+00	1.406566e+01	-1.406574e+01
0.54          	1.989051e+00	0.000000e+00	-7.781427e-05	3.890714e-05	1.392408e+01	9.945256e-01	9.945646e-01	9.944867e-01	9.945256e-01	-9.945256e-01	1.392404e+01	-1.392412e+01
0.56          	1.967116e+00	0.000000e+00	-8.612285e-05	4.306142e-05	1.377061e+01	9.835578e-01	9.836009e-01	9.835148e-01	9.835578e-01	-9.835578e-01	1.377057e+01	-1.377066e+01
0.58          	1.943746e+00	0.000000e+00	-8.578740e-05	4.289370e-05	1.360702e+01	9.718731e-01	9.719160e-01	9.718302e-01	9.718731e-01	-9.718731e-01	1.360698e+01	-1.360706e+01
0.6           	1.927392e+00	0.000000e+00	-8.416383e-05	4.208191e-05	1.349253e+01	9.636962e-01	9.637383e-01	9.636541e-01	9.636962e-01	-9.636962e-01	1.349249e+01	-1.349257e+01
0.62          	1.910340e+00	0.000000e+00	-8.498389e-05	4.249194e-05	1.337317e+01	9.551700e-01	9.552125e-01	9.551275e-01	9.551700e-01	-9.551700e-01	1.337313e+01	-1.337321e+01
0.64          	1.892680e+00	0.000000e+00	-8.382040e-05	4.191020e-05	1.324954e+01	9.463399e-01	9.463818e-01	9.462980e-01	9.463399e-01	-9.463399e-01	1.324950e+01	-1.324958e+01
0.66          	1.875691e+00	0.000000e+00	-8.227287e-05	4.113643e-05	1.313060e+01	9.378455e-01	9.378867e-01	9.378044e-01	9.378455e-01	-9.378455e-01	1.313056e+01	-1.313065e+01
0.68          	1.859132e+00	0.000000e+00	-8.016867e-05	4.008434e-05	1.301467e+01	9.295659e-01	9.296060e-01	9.295258e-01	9.295659e-01	-9.295659e-01	1.301463e+01	-1.301471e+01
0.7           	1.843340e+00	0.000000e+00	-7.880037e-05	3.940019e-05	1.290412e+01	9.216701e-01	9.217095e-01	9.216307e-01	9.216701e-01	-9.216701e-01	1.290408e+01	-1.290416e+01
0.72          	1.827846e+00	0.000000e+00	-7.423428e-05	3.711714e-05	1.279561e+01	9.139228e-01	9.139599e-01	9.138857e-01	9.139228e-01	-9.139228e-01	1.279558e+01	-1.279565e+01
0.74          	1.812725e+00	0.000000e+00	-6.938826e-05	3.469413e-05	1.268972e+01	9.063623e-01	9.063970e-01	9.063276e-01	9.063623e-01	-9.063623e-01	1.268969e+01	-1.268976e+01
0.76          	1.797459e+00	0.000000e+00	-6.304072e-05	3.152036e-05	1.258280e+01	8.987296e-01	8.987612e-01	8.986981e-01	8.987296e-01	-8.987296e-01	1.258277e+01	-1.258284e+01
0.78          	1.775383e+00	0.000000e+00	-8.880622e-05	4.440311e-05	1.242851e+01	8.876916e-01	8.877360e-01	8.876472e-01	8.876916e-01	-8.876916e-01	1.242847e+01	-1.242856e+01
0.8           	1.764437e+00	0.000000e+00	-8.502883e-05	4.251442e-05	1.235185e+01	8.822184e-01	8.822609e-01	8.821759e-01	8.822184e-01	-8.822184e-01	1.235181e+01	-1.235189e+01
0.82          	1.751040e+00	0.000000e+00	-9.341563e-05	4.670782e-05	1.225815e+01	8.755200e-01	8.755668e-01	8.754733e-01	8.755200e-01	-8.755200e-01	1.225811e+01	-1.225820e+01
0.84          	1.738707e+00	0.000000e+00	-9.324915e-05	4.662457e-05	1.217182e+01	8.693535e-01	8.694001e-01	8.693069e-01	8.693535e-01	-8.693535e-01	1.217177e+01	-1.217187e+01
0.86          	1.724383e+00	0.000000e+00	-9.883264e-05	4.941632e-05	1.207160e+01	8.621913e-01	8.622407e-01	8.621419e-01	8.621913e-01	-8.621913e-01	1.207155e+01	-1.207165e+01
0.88          	1.711777e+00	0.000000e+00	-1.007910e-04	5.039552e-05	1.198339e+01	8.558886e-01	8.559390e-01	8.558382e-01	8.558886e-01	-8.558886e-01	1.198334e+01	-1.198344e+01
0.9           	1.700498e+00	0.000000e+00	-9.614519e-05	4.807259e-05	1.190439e+01	8.502491e-01	8.502972e-01	8.502011e-01	8.502491e-01	-8.502491e-01	1.190434e+01	-1.190444e+01
0.92          	1.689711e+00	0.000000e+00	-1.051422e-04	5.257108e-05	1.182896e+01	8.448553e-01	8.449078e-01	8.448027e-01	8.448553e-01	-8.448553e-01	1.182891e+01	-1.182901e+01
0.94          	1.679716e+00	0.000000e+00	-1.002731e-04	5.013656e-05	1.175896e+01	8.398582e-01	8.399083e-01	8.398081e-01	8.398582e-01	-8.398582e-01	1.175891e+01	-1.175901e+01
0.96          	1.670112e+00	0.000000e+00	-1.016400e-04	5.081998e-05	1.169174e+01	8.350558e-01	8.351066e-01	8.350050e-01	8.350558e-01	-8.350558e-01	1.169169e+01	-1.169179e+01
0.98          	1.660980e+00	0.000000e+00	-1.074339e-04	5.371693e-05	1.162787e+01	8.304898e-01	8.305435e-01	8.304360e-01	8.304898e-01	-8.304898e-01	1.162781e+01	-1.162792e+01
1             	1.652278e+00	0.000000e+00	-1.063279e-04	5.316394e-05	1.156694e+01	8.261389e-01	8.261920e-01	8.260857e-01	8.261389e-01	-8.261389e-01	1.156689e+01	-1.156700e+01
1.02          	1.644098e+00	0.000000e+00	-1.068267e-04	5.341333e-05	1.150969e+01	8.220491e-01	8.221026e-01	8.219957e-01	8.220491e-01	-8.220491e-01	1.150964e+01	-1.150975e+01
1.04          	1.636252e+00	0.000000e+00	-1.080849e-04	5.404245e-05	1.145478e+01	8.181260e-01	8.181800e-01	8.180719e-01	8.181260e-01	-8.181260e-01	1.145473e+01	-1.145483e+01
1.06          	1.628820e+00	0.000000e+00	-1.069900e-04	5.349501e-05	1.140275e+01	8.144102e-01	8.144637e-01	8.143567e-01	8.144102e-01	-8.144102e-01	1.140269e+01	-1.140280e+01
1.08          	1.621779e+00	0.000000e+00	-1.161205e-04	5.806026e-05	1.135355e+01	8.108897e-01	8.109478e-01	8.108317e-01	8.108897e-01	-8.108897e-01	1.135349e+01	-1.135361e+01
1.1           	1.615249e+00	0.000000e+00	-1.137785e-04	5.688927e-05	1.130782e+01	8.076246e-01	8.076815e-01	8.075677e-01	8.076246e-01	-8.076246e-01	1.130776e+01	-1.130787e+01
1.12          	1.608915e+00	0.000000e+00	-1.144001e-04	5.720003e-05	1.126348e+01	8.044575e-01	8.045147e-01	8.044003e-01	8.044575e-01	-8.044575e-01	1.126343e+01	-1.126354e+01
1.14          	1.602809e+00	0.000000e+00	-1.139491e-04	5.697453e-05	1.122074e+01	8.014047e-01	8.014617e-01	8.013477e-01	8.014047e-01	-8.014047e-01	1.122068e+01	-1.122080e+01
1.16          	1.596844e+00	0.000000e+00	-1.109268e-04	5.546341e-05	1.117895e+01	7.984219e-01	7.984774e-01	7.983664e-01	7.984219e-01	-7.984219e-01	1.117890e+01	-1.117901e+01
1.18          	1.590832e+00	0.000000e+00	-1.096088e-04	5.480438e-05	1.113686e+01	7.954160e-01	7.954708e-01	7.953612e-01	7.954160e-01	-7.954160e-01	1.113680e+01	-1.113691e+01
1.2           	1.585125e+00	0.000000e+00	-1.100385e-04	5.501925e-05	1.109691e+01	7.925625e-01	7.926175e-01	7.925074e-01	7.925625e-01	-7.925625e-01	1.109686e+01	-1.109697e+01
1.22          	1.581138e+00	0.000000e+00	-1.020116e-04	5.100582e-05	1.106893e+01	7.905689e-01	7.906199e-01	7.905179e-01	7.905689e-01	-7.905689e-01	1.106887e+01	-1.106898e+01
1.24          	1.576216e+00	0.000000e+00	-1.070766e-04	5.353830e-05	1.103452e+01	7.881079e-01	7.881614e-01	7.880544e-01	7.881079e-01	-7.881079e-01	1.103447e+01	-1.103458e+01
1.26          	1.570452e+00	0.000000e+00	-9.540368e-05	4.770184e-05	1.099406e+01	7.852258e-01	7.852735e-01	7.851781e-01	7.852258e-01	-7.852258e-01	1.099401e+01	-1.099411e+01
1.28          	1.566088e+00	0.000000e+00	-9.741280e-05	4.870640e-05	1.096354e+01	7.830441e-01	7.830928e-01	7.829954e-01	7.830441e-01	-7.830441e-01	1.096349e+01	-1.096358e+01
1.3           	1.561750e+00	0.000000e+00	-9.798461e-05	4.899230e-05	1.093317e+01	7.808749e-01	7.809238e-01	7.808259e-01	7.808749e-01	-7.808749e-01	1.093312e+01	-1.093322e+01
1.32          	1.557337e+00	0.000000e+00	-9.512910e-05	4.756455e-05	1.090225e+01	7.786683e-01	7.787159e-01	7.786208e-01	7.786683e-01	-7.786683e-01	1.090221e+01	-1.090230e+01
1.34          	1.553298e+00	0.000000e+00	-9.498474e-05	4.749237e-05	1.087398e+01	7.766489e-01	7.766964e-01	7.766014e-01	7.766489e-01	-7.766489e-01	1.087393e+01	-1.087403e+01
1.36          	1.549311e+00	0.000000e+00	-9.279074e-05	4.639537e-05	1.084605e+01	7.746556e-01	7.747020e-01	7.746092e-01	7.746556e-01	-7.746556e-01	1.084601e+01	-1.084610e+01
1.38          	1.545542e+00	0.000000e+00	-9.186405e-05	4.593202e-05	1.081966e+01	7.727712e-01	7.728171e-01	7.727252e-01	7.727712e-01	-7.727712e-01	1.081962e+01	-1.081971e+01
1.4           	1.541882e+00	0.000000e+00	-9.062609e-05	4.531305e-05	1.079403e+01	7.709411e-01	7.709864e-01	7.708957e-01	7.709411e-01	-7.709411e-01	1.079398e+01	-1.079407e+01
1.42          	1.538353e+00	0.000000e+00	-8.910599e-05	4.455300e-05	1.076931e+01	7.691767e-01	7.692212e-01	7.691321e-01	7.691767e-01	-7.691767e-01	1.076927e+01	-1.076936e+01
1.44          	1.534951e+00	0.000000e+00	-8.815901e-05	4.407951e-05	1.074549e+01	7.674755e-01	7.675196e-01	7.674314e-01	7.674755e-01	-7.674755e-01	1.074544e+01	-1.074553e+01
1.46          	1.531323e+00	0.000000e+00	-8.461667e-05	4.230834e-05	1.072006e+01	7.656614e-01	7.657037e-01	7.656191e-01	7.656614e-01	-7.656614e-01	1.072001e+01	-1.072010e+01
1.48          	1.527881e+00	0.000000e+00	-8.536267e-05	4.268133e-05	1.069597e+01	7.639405e-01	7.639832e-01	7.638978e-01	7.639405e-01	-7.639405e-01	1.069593e+01	-1.069601e+01
1.5           	1.525841e+00	0.000000e+00	-8.508286e-05	4.254143e-05	1.068169e+01	7.629205e-01	7.629631e-01	7.628780e-01	7.629205e-01	-7.629205e-01	1.068165e+01	-1.068173e+01
1.52          	1.522809e+00	0.000000e+00	-8.203155e-05	4.101578e-05	1.066043e+01	7.614043e-01	7.614453e-01	7.613633e-01	7.614043e-01	-7.614043e-01	1.066039e+01	-1.066047e+01
1.54          	1.519953e+00	0.000000e+00	-8.053788e-05	4.026894e-05	1.064043e+01	7.599764e-01	7.600167e-01	7.599362e-01	7.599764e-01	-7.599764e-01	1.064039e+01	-1.064047e+01
1.56          	1.517179e+00	0.000000e+00	-7.883404e-05	3.941702e-05	1.062099e+01	7.585893e-01	7.586287e-01	7.585499e-01	7.585893e-01	-7.585893e-01	1.062095e+01	-1.062103e+01
1.58          	1.514498e+00	0.000000e+00	-7.725710e-05	3.862855e-05	1.060221e+01	7.572490e-01	7.572877e-01	7.572104e-01	7.572490e-01	-7.572490e-01	1.060218e+01	-1.060225e+01
1.6           	1.511834e+00	0.000000e+00	-7.609297e-05	3.804648e-05	1.058355e+01	7.559168e-01	7.559548e-01	7.558787e-01	7.559168e-01	-7.559168e-01	1.058351e+01	-1.058359e+01
1.62          	1.509252e+00	0.000000e+00	-7.499223e-05	3.749611e-05	1.056547e+01	7.546259e-01	7.546634e-01	7.545884e-01	7.546259e-01	-7.546259e-01	1.056543e+01	-1.056551e+01
1.64          	1.506816e+00	0.000000e+00	-7.378392e-05	3.689196e-05	1.054841e+01	7.534080e-01	7.534449e-01	7.533711e-01	7.534080e-01	-7.534080e-01	1.054837e+01	-1.054844e+01
1.66          	1.504380e+00	0.000000e+00	-7.299080e-05	3.649540e-05	1.053135e+01	7.521900e-01	7.522265e-01	7.521536e-01	7.521900e-01	-7.521900e-01	1.053131e+01	-1.053138e+01
1.68          	1.502026e+00	0.000000e+00	-7.193988e-05	3.596994e-05	1.051486e+01	7.510131e-01	7.510491e-01	7.509771e-01	7.510131e-01	-7.510131e-01	1.051483e+01	-1.051490e+01
1.7           	1.499692e+00	0.000000e+00	-7.127150e-05	3.563575e-05	1.049852e+01	7.498460e-01	7.498817e-01	7.498104e-01	7.498460e-01	-7.498460e-01	1.049848e+01	-1.049855e+01
1.72          	1.497409e+00	0.000000e+00	-7.063218e-05	3.531609e-05	1.048253e+01	7.487046e-01	7.487399e-01	7.486693e-01	7.487046e-01	-7.487046e-01	1.048250e+01	-1.048257e+01
1.74          	1.495191e+00	0.000000e+00	-6.917834e-05	3.458917e-05	1.046699e+01	7.475953e-01	7.476299e-01	7.475607e-01	7.475953e-01	-7.475953e-01	1.046695e+01	-1.046702e+01
1.76          	1.492982e+00	0.000000e+00	-6.838000e-05	3.419000e-05	1.045152e+01	7.464911e-01	7.465253e-01	7.464569e-01	7.464911e-01	-7.464911e-01	1.045149e+01	-1.045155e+01
1.78          	1.490721e+00	0.000000e+00	-6.799177e-05	3.399588e-05	1.043569e+01	7.453604e-01	7.453944e-01	7.453264e-01	7.453604e-01	-7.453604e-01	1.043565e+01	-1.043572e+01
1.8           	1.488402e+00	0.000000e+00	-6.793304e-05	3.396652e-05	1.041946e+01	7.442012e-01	7.442351e-01	7.441672e-01	7.442012e-01	-7.442012e-01	1.041942e+01	-1.041949e+01
1.82          	1.486898e+00	0.000000e+00	-6.802473e-05	3.401237e-05	1.040893e+01	7.434488e-01	7.434829e-01	7.434148e-01	7.434488e-01	-7.434488e-01	1.040889e+01	-1.040896e+01
1.84          	1.484897e+00	0.000000e+00	-6.718639e-05	3.359319e-05	1.039491e+01	7.424484e-01	7.424820e-01	7.424148e-01	7.424484e-01	-7.424484e-01	1.039488e+01	-1.039495e+01
1.86          	1.482912e+00	0.000000e+00	-6.690908e-05	3.345454e-05	1.038102e+01	7.414562e-01	7.414896e-01	7.414227e-01	7.414562e-01	-7.414562e-01	1.038098e+01	-1.038105e+01
1.88          	1.480944e+00	0.000000e+00	-6.727060e-05	3.363530e-05	1.036725e+01	7.404721e-01	7.405058e-01	7.404385e-01	7.404721e-01	-7.404721e-01	1.036721e+01	-1.036728e+01
1.9           	1.479027e+00	0.000000e+00	-6.699990e-05	3.349995e-05	1.035382e+01	7.395133e-01	7.395468e-01	7.394798e-01	7.395133e-01	-7.395133e-01	1.035379e+01	-1.035385e+01
1.92          	1.477139e+00	0.000000e+00	-6.734462e-05	3.367231e-05	1.034061e+01	7.385696e-01	7.386033e-01	7.385359e-01	7.385696e-01	-7.385696e-01	1.034058e+01	-1.034064e+01
1.94          	1.475281e+00	0.000000e+00	-6.776745e-05	3.388372e-05	1.032761e+01	7.376403e-01	7.376742e-01	7.376064e-01	7.376403e-01	-7.376403e-01	1.032757e+01	-1.032764e+01
1.96          	1.473458e+00	0.000000e+00	-6.783727e-05	3.391864e-05	1.031485e+01	7.367290e-01	7.367629e-01	7.366951e-01	7.367290e-01	-7.367290e-01	1.031481e+01	-1.031488e+01
1.98          	1.471645e+00	0.000000e+00	-6.827391e-05	3.413696e-05	1.030216e+01	7.358223e-01	7.358564e-01	7.357882e-01	7.358223e-01	-7.358223e-01	1.030212e+01	-1.030219e+01
2             	1.469867e+00	0.000000e+00	-6.870145e-05	3.435073e-05	1.028972e+01	7.349337e-01	7.349680e-01	7.348993e-01	7.349337e-01	-7.349337e-01	1.028969e+01	-1.028976e+01
2.02          	1.468116e+00	0.000000e+00	-6.982045e-05	3.491022e-05	1.027747e+01	7.340578e-01	7.340927e-01	7.340229e-01	7.340578e-01	-7.340578e-01	1.027743e+01	-1.027750e+01
2.04          	1.466392e+00	0.000000e+00	-7.029563e-05	3.514781e-05	1.026541e+01	7.331959e-01	7.332310e-01	7.331608e-01	7.331959e-01	-7.331959e-01	1.026537e+01	-1.026544e+01
2.06          	1.464690e+00	0.000000e+00	-7.110036e-05	3.555018e-05	1.025350e+01	7.323449e-01	7.323805e-01	7.323094e-01	7.323449e-01	-7.323449e-01	1.025347e+01	-1.025354e+01
2.08          	1.463013e+00	0.000000e+00	-7.218160e-05	3.609080e-05	1.024178e+01	7.315067e-01	7.315428e-01	7.314706e-01	7.315067e-01	-7.315067e-01	1.024174e+01	-1.024181e+01
2.1           	1.461312e+00	0.000000e+00	-7.313918e-05	3.656959e-05	1.022988e+01	7.306560e-01	7.306926e-01	7.306194e-01	7.306560e-01	-7.306560e-01	1.022984e+01	-1.022991e+01
2.12          	1.459668e+00	0.000000e+00	-7.427305e-05	3.713653e-05	1.021838e+01	7.298339e-01	7.298710e-01	7.297968e-01	7.298339e-01	-7.298339e-01	1.021834e+01	-1.021841e+01
2.14          	1.458000e+00	0.000000e+00	-7.537715e-05	3.768858e-05	1.020671e+01	7.290001e-01	7.290378e-01	7.289624e-01	7.290001e-01	-7.290001e-01	1.020668e+01	-1.020675e+01
2.16          	1.456121e+00	0.000000e+00	-7.589476e-05	3.794738e-05	1.019356e+01	7.280603e-01	7.280983e-01	7.280224e-01	7.280603e-01	-7.280603e-01	1.019352e+01	-1.019360e+01
2.18          	1.454978e+00	0.000000e+00	-7.928821e-05	3.964411e-05	1.018559e+01	7.274889e-01	7.275285e-01	7.274492e-01	7.274889e-01	-7.274889e-01	1.018555e+01	-1.018563e+01
2.2           	1.453407e+00	0.000000e+00	-7.957428e-05	3.978714e-05	1.017460e+01	7.267035e-01	7.267433e-01	7.266637e-01	7.267035e-01	-7.267035e-01	1.017456e+01	-1.017464e+01
2.22          	1.451865e+00	0.000000e+00	-8.062168e-05	4.031084e-05	1.016382e+01	7.259324e-01	7.259727e-01	7.258921e-01	7.259324e-01	-7.259324e-01	1.016378e+01	-1.016386e+01
2.24          	1.450315e+00	0.000000e+00	-8.317220e-05	4.158610e-05	1.015299e+01	7.251577e-01	7.251993e-01	7.251161e-01	7.251577e-01	-7.251577e-01	1.015295e+01	-1.015304e+01
2.26          	1.448786e+00	0.000000e+00	-8.410938e-05	4.205469e-05	1.014229e+01	7.243928e-01	7.244349e-01	7.243508e-01	7.243928e-01	-7.243928e-01	1.014225e+01	-1.014234e+01
2.28          	1.447290e+00	0.000000e+00	-8.581645e-05	4.290822e-05	1.013184e+01	7.236451e-01	7.236880e-01	7.236022e-01	7.236451e-01	-7.236451e-01	1.013180e+01	-1.013189e+01
2.3           	1.445807e+00	0.000000e+00	-8.860742e-05	4.430371e-05	1.012148e+01	7.229034e-01	7.229477e-01	7.228591e-01	7.229034e-01	-7.229034e-01	1.012144e+01	-1.012153e+01
2.32          	1.444337e+00	0.000000e+00	-8.967818e-05	4.483909e-05	1.011121e+01	7.221686e-01	7.222134e-01	7.221237e-01	7.221686e-01	-7.221686e-01	1.011116e+01	-1.011125e+01
2.34          	1.442863e+00	0.000000e+00	-9.310843e-05	4.655422e-05	1.010092e+01	7.214315e-01	7.214780e-01	7.213849e-01	7.214315e-01	-7.214315e-01	1.010087e+01	-1.010097e+01
2.36          	1.441423e+00	0.000000e+00	-9.450578e-05	4.725289e-05	1.009086e+01	7.207117e-01	7.207590e-01	7.206645e-01	7.207117e-01	-7.207117e-01	1.009081e+01	-1.009090e+01
2.38          	1.439988e+00	0.000000e+00	-9.684073e-05	4.842037e-05	1.008083e+01	7.199942e-01	7.200426e-01	7.199458e-01	7.199942e-01	-7.199942e-01	1.008078e+01	-1.008088e+01
2.4           	1.438567e+00	0.000000e+00	-9.834154e-05	4.917077e-05	1.007090e+01	7.192833e-01	7.193325e-01	7.192342e-01	7.192833e-01	-7.192833e-01	1.007085e+01	-1.007094e+01
2.42          	1.437166e+00	0.000000e+00	-1.012113e-04	5.060565e-05	1.006111e+01	7.185828e-01	7.186334e-01	7.185321e-01	7.185828e-01	-7.185828e-01	1.006106e+01	-1.006117e+01
2.44          	1.435767e+00	0.000000e+00	-1.028577e-04	5.142887e-05	1.005134e+01	7.178836e-01	7.179350e-01	7.178321e-01	7.178836e-01	-7.178836e-01	1.005129e+01	-1.005139e+01
2.46          	1.434400e+00	0.000000e+00	-1.058449e-04	5.292243e-05	1.004180e+01	7.171998e-01	7.172528e-01	7.171469e-01	7.171998e-01	-7.171998e-01	1.004174e+01	-1.004185e+01
2.48          	1.433007e+00	0.000000e+00	-1.070758e-04	5.353792e-05	1.003206e+01	7.165035e-01	7.165570e-01	7.164499e-01	7.165035e-01	-7.165035e-01	1.003201e+01	-1.003211e+01
2.5           	1.431674e+00	0.000000e+00	-1.093444e-04	5.467221e-05	1.002275e+01	7.158368e-01	7.158915e-01	7.157821e-01	7.158368e-01	-7.158368e-01	1.002269e+01	-1.002280e+01
2.52          	1.430326e+00	0.000000e+00	-1.116846e-04	5.584232e-05	1.001333e+01	7.151629e-01	7.152187e-01	7.151070e-01	7.151629e-01	-7.151629e-01	1.001328e+01	-1.001339e+01
2.54          	1.428987e+00	0.000000e+00	-1.130976e-04	5.654878e-05	1.000398e+01	7.144934e-01	7.145499e-01	7.144368e-01	7.144934e-01	-7.144934e-01	1.000392e+01	-1.000403e+01
2.56          	1.427654e+00	0.000000e+00	-1.152679e-04	5.763395e-05	9.994669e+00	7.138272e-01	7.138848e-01	7.137696e-01	7.138272e-01	-7.138272e-01	9.994611e+00	-9.994727e+00
2.58          	1.426227e+00	0.000000e+00	-1.184226e-04	5.921128e-05	9.984704e+00	7.131133e-01	7.131725e-01	7.130541e-01	7.131133e-01	-7.131133e-01	9.984645e+00	-9.984763e+00
2.6           	1.425154e+00	0.000000e+00	-1.194144e-04	5.970718e-05	9.977207e+00	7.125771e-01	7.126369e-01	7.125174e-01	7.125771e-01	-7.125771e-01	9.977148e+00	-9.977267e+00
2.62          	1.423860e+00	0.000000e+00	-1.210817e-04	6.054086e-05	9.968166e+00	7.119302e-01	7.119908e-01	7.118697e-01	7.119302e-01	-7.119302e-01	9.968105e+00	-9.968226e+00
2.64          	1.422594e+00	0.000000e+00	-1.232663e-04	6.163317e-05	9.959321e+00	7.112970e-01	7.113586e-01	7.112353e-01	7.112970e-01	-7.112970e-01	9.959260e+00	-9.959383e+00
2.66          	1.421332e+00	0.000000e+00	-1.253225e-04	6.266125e-05	9.950507e+00	7.106660e-01	7.107286e-01	7.106033e-01	7.106660e-01	-7.106660e-01	9.950444e+00	-9.950569e+00
2.68          	1.420078e+00	0.000000e+00	-1.263993e-04	6.319964e-05	9.941742e+00	7.100392e-01	7.101024e-01	7.099760e-01	7.100392e-01	-7.100392e-01	9.941679e+00	-9.941805e+00
2.7           	1.418854e+00	0.000000e+00	-1.288379e-04	6.441893e-05	9.933197e+00	7.094272e-01	7.094916e-01	7.093628e-01	7.094272e-01	-7.094272e-01	9.933132e+00	-9.933261e+00
2.72          	1.417631e+00	0.000000e+00	-1.309807e-04	6.549035e-05	9.924651e+00	7.088153e-01	7.088808e-01	7.087498e-01	7.088153e-01	-7.088153e-01	9.924585e+00	-9.924716e+00
2.74          	1.416413e+00	0.000000e+00	-1.319406e-04	6.597030e-05	9.916134e+00	7.082063e-01	7.082723e-01	7.081403e-01	7.082063e-01	-7.082063e-01	9.916068e+00	-9.916200e+00
2.76          	1.415215e+00	0.000000e+00	-1.332631e-04	6.663155e-05	9.907765e+00	7.076076e-01	7.076743e-01	7.075410e-01	7.076076e-01	-7.076076e-01	9.907698e+00	-9.907832e+00
2.78          	1.414028e+00	0.000000e+00	-1.342315e-04	6.711577e-05	9.899462e+00	7.070139e-01	7.070810e-01	7.069468e-01	7.070139e-01	-7.070139e-01	9.899395e+00	-9.899529e+00
2.8           	1.412847e+00	0.000000e+00	-1.358912e-04	6.794558e-05	9.891209e+00	7.064233e-01	7.064912e-01	7.063553e-01	7.064233e-01	-7.064233e-01	9.891141e+00	-9.891277e+00
2.82          	1.411685e+00	0.000000e+00	-1.350937e-04	6.754684e-05	9.883070e+00	7.058424e-01	7.059100e-01	7.057749e-01	7.058424e-01	-7.058424e-01	9.883002e+00	-9.883137e+00
2.84          	1.410521e+00	0.000000e+00	-1.371038e-04	6.855189e-05	9.874944e+00	7.052607e-01	7.053292e-01	7.051921e-01	7.052607e-01	-7.052607e-01	9.874875e+00	-9.875012e+00
2.86          	1.409384e+00	0.000000e+00	-1.370348e-04	6.851738e-05	9.866982e+00	7.046919e-01	7.047605e-01	7.046234e-01	7.046919e-01	-7.046919e-01	9.866913e+00	-9.867050e+00
2.88          	1.408260e+00	0.000000e+00	-1.389363e-04	6.946817e-05	9.859135e+00	7.041302e-01	7.041997e-01	7.040607e-01	7.041302e-01	-7.041302e-01	9.859065e+00	-9.859204e+00
2.9           	1.407128e+00	0.000000e+00	-1.406527e-04	7.032633e-05	9.851226e+00	7.035641e-01	7.036344e-01	7.034937e-01	7.035641e-01	-7.035641e-01	9.851155e+00	-9.851296e+00
2.92          	1.406026e+00	0.000000e+00	-1.411014e-04	7.055069e-05	9.843512e+00	7.030128e-01	7.030833e-01	7.029422e-01	7.030128e-01	-7.030128e-01	9.843441e+00	-9.843582e+00
2.94          	1.404948e+00	0.000000e+00	-1.403540e-04	7.017699e-05	9.835961e+00	7.024739e-01	7.025441e-01	7.024037e-01	7.024739e-01	-7.024739e-01	9.835891e+00	-9.836031e+00
2.96          	1.403879e+00	0.000000e+00	-1.448239e-04	7.241197e-05	9.828524e+00	7.019396e-01	7.020120e-01	7.018672e-01	7.019396e-01	-7.019396e-01	9.828452e+00	-9.828596e+00
2.98          	1.402713e+00	0.000000e+00	-1.431181e-04	7.155907e-05	9.820341e+00	7.013563e-01	7.014279e-01	7.012847e-01	7.013563e-01	-7.013563e-01	9.820269e+00	-9.820412e+00
3             	1.401638e+00	0.000000e+00	-1.433037e-04	7.165183e-05	9.812818e+00	7.008188e-01	7.008905e-01	7.007472e-01	7.008188e-01	-7.008188e-01	9.812746e+00	-9.812889e+00
3.02          	1.400555e+00	0.000000e+00	-1.434034e-04	7.170172e-05	9.805240e+00	7.002774e-01	7.003491e-01	7.002057e-01	7.002774e-01	-7.002774e-01	9.805168e+00	-9.805311e+00
3.04          	1.399511e+00	0.000000e+00	-1.450864e-04	7.254319e-05	9.797945e+00	6.997553e-01	6.998278e-01	6.996827e-01	6.997553e-01	-6.997553e-01	9.797873e+00	-9.798018e+00
3.06          	1.398682e+00	0.000000e+00	-1.445600e-04	7.228002e-05	9.792141e+00	6.993410e-01	6.994133e-01	6.992688e-01	6.993410e-01	-6.993410e-01	9.792069e+00	-9.792214e+00
3.08          	1.397433e+00	0.000000e+00	-1.445889e-04	7.229443e-05	9.783400e+00	6.987166e-01	6.987889e-01	6.986443e-01	6.987166e-01	-6.987166e-01	9.783328e+00	-9.783472e+00
3.1           	1.396422e+00	0.000000e+00	-1.438423e-04	7.192115e-05	9.776311e+00	6.982108e-01	6.982827e-01	6.981389e-01	6.982108e-01	-6.982108e-01	9.776240e+00	-9.776383e+00
3.12          	1.395464e+00	0.000000e+00	-1.440005e-04	7.200025e-05	9.769610e+00	6.977320e-01	6.978040e-01	6.976600e-01	6.977320e-01	-6.977320e-01	9.769538e+00	-9.769682e+00
3.14          	1.394481e+00	0.000000e+00	-1.451641e-04	7.258204e-05	9.762741e+00	6.972406e-01	6.973131e-01	6.971680e-01	6.972406e-01	-6.972406e-01	9.762669e+00	-9.762814e+00
3.16          	1.393429e+00	0.000000e+00	-1.435416e-04	7.177080e-05	9.755363e+00	6.967147e-01	6.967864e-01	6.966429e-01	6.967147e-01	-6.967147e-01	9.755292e+00	-9.755435e+00
3.18          	1.392444e+00	0.000000e+00	-1.456606e-04	7.283029e-05	9.748484e+00	6.962218e-01	6.962947e-01	6.961490e-01	6.962218e-01	-6.962218e-01	9.748411e+00	-9.748557e+00
3.2           	1.391516e+00	0.000000e+00	-1.411899e-04	7.059493e-05	9.741946e+00	6.957578e-01	6.958284e-01	6.956872e-01	6.957578e-01	-6.957578e-01	9.741875e+00	-9.742016e+00
3.22          	1.390580e+00	0.000000e+00	-1.418233e-04	7.091164e-05	9.735404e+00	6.952901e-01	6.953610e-01	6.952192e-01	6.952901e-01	-6.952901e-01	9.735333e+00	-9.735475e+00
3.24          	1.389631e+00	0.000000e+00	-1.444444e-04	7.222218e-05	9.728787e+00	6.948156e-01	6.948879e-01	6.947434e-01	6.948156e-01	-6.948156e-01	9.728714e+00	-9.728859e+00
3.26          	1.388521e+00	0.000000e+00	-1.415641e-04	7.078204e-05	9.720988e+00	6.942606e-01	6.943313e-01	6.941898e-01	6.942606e-01	-6.942606e-01	9.720917e+00	-9.721059e+00
3.28          	1.387639e+00	0.000000e+00	-1.404386e-04	7.021931e-05	9.714804e+00	6.938195e-01	6.938898e-01	6.937493e-01	6.938195e-01	-6.938195e-01	9.714733e+00	-9.714874e+00
3.3           	1.386689e+00	0.000000e+00	-1.399409e-04	6.997047e-05	9.708151e+00	6.933447e-01	6.934146e-01	6.932747e-01	6.933447e-01	-6.933447e-01	9.708081e+00	-9.708221e+00
3.32          	1.385692e+00	0.000000e+00	-1.369720e-04	6.848602e-05	9.701142e+00	6.928460e-01	6.929145e-01	6.927776e-01	6.928460e-01	-6.928460e-01	9.701073e+00	-9.701210e+00
3.34          	1.384916e+00	0.000000e+00	-1.409073e-04	7.045367e-05	9.695747e+00	6.924580e-01	6.925284e-01	6.923875e-01	6.924580e-01	-6.924580e-01	9.695677e+00	-9.695818e+00
3.36          	1.383986e+00	0.000000e+00	-1.358228e-04	6.791138e-05	9.689191e+00	6.919931e-01	6.920610e-01	6.919252e-01	6.919931e-01	-6.919931e-01	9.689123e+00	-9.689259e+00